       N       E                     dE             d eps       ncg     rms          rms(c)
DAV:   1    -0.356322431415E+03   -0.35632E+03   -0.55793E+02 17520   0.666E+02    0.340E+01
DAV:   2    -0.389990651343E+03   -0.33668E+02   -0.26363E+02 18968   0.967E+01    0.164E+01
DAV:   3    -0.392138389980E+03   -0.21477E+01   -0.28305E+01 18040   0.866E+01    0.449E+00
DAV:   4    -0.392536258863E+03   -0.39787E+00   -0.60725E+00 19904   0.250E+01    0.491E+00
DAV:   5    -0.392697934232E+03   -0.16168E+00   -0.86886E-01 20976   0.117E+01    0.284E+00
DAV:   6    -0.392771353257E+03   -0.73419E-01   -0.36704E-01 21264   0.516E+00    0.219E+00
DAV:   7    -0.392810537288E+03   -0.39184E-01   -0.29656E-01 21064   0.336E+00    0.296E+00
DAV:   8    -0.392750101532E+03    0.60436E-01   -0.26749E-01 19304   0.445E+00    0.184E+00
DAV:   9    -0.392708654336E+03    0.41447E-01   -0.31592E-02 21544   0.363E+00    0.203E+00
DAV:  10    -0.392592729109E+03    0.11593E+00   -0.62997E-02 21488   0.593E+00    0.411E+00
DAV:  11    -0.392737834034E+03   -0.14510E+00   -0.15627E-01 20400   0.807E+00    0.235E+00
DAV:  12    -0.392814186318E+03   -0.76352E-01   -0.54747E-01 21472   0.558E+00    0.391E+00
DAV:  13    -0.392867244915E+03   -0.53059E-01   -0.22292E-02 22032   0.249E+00    0.420E+00
DAV:  14    -0.392949523165E+03   -0.82278E-01   -0.20382E-02 21480   0.339E+00    0.297E+00
DAV:  15    -0.392945208471E+03    0.43147E-02   -0.61717E-03 19512   0.135E+00    0.310E+00
DAV:  16    -0.392957875478E+03   -0.12667E-01   -0.20114E-03 21464   0.947E-01    0.264E+00
DAV:  17    -0.392996518654E+03   -0.38643E-01   -0.40075E-02 20864   0.553E+00    0.635E-01
DAV:  18    -0.392998214274E+03   -0.16956E-02   -0.89910E-03 21008   0.966E-01    0.421E-01
DAV:  19    -0.392999028827E+03   -0.81455E-03   -0.70321E-04 19920   0.544E-01    0.183E-01
DAV:  20    -0.392999095824E+03   -0.66997E-04   -0.96335E-04 21240   0.620E-01    0.172E-01
DAV:  21    -0.392999154478E+03   -0.58654E-04   -0.36792E-04 20736   0.455E-01    0.791E-02
DAV:  22    -0.392998955144E+03    0.19933E-03   -0.25098E-04 21336   0.342E-01    0.191E-01
DAV:  23    -0.392999065986E+03   -0.11084E-03   -0.47188E-05 18448   0.157E-01    0.137E-01
DAV:  24    -0.392999171744E+03   -0.10576E-03   -0.46896E-05 18320   0.135E-01    0.668E-02
DAV:  25    -0.392999169892E+03    0.18521E-05   -0.94279E-06 12440   0.419E-02    0.719E-02
DAV:  26    -0.392999198168E+03   -0.28277E-04   -0.10137E-05 13008   0.927E-02    0.212E-02
DAV:  27    -0.392999201457E+03   -0.32890E-05   -0.27461E-06  7440   0.312E-02    0.792E-03
DAV:  28    -0.392999201823E+03   -0.36581E-06   -0.24404E-06  7936   0.172E-02
   1 F= -.39299920E+03 E0= -.39299920E+03  d E =-.123209E-31  mag=     0.0000
