       N       E                     dE             d eps       ncg     rms          rms(c)
DAV:   1    -0.286662804636E+03   -0.28666E+03   -0.25517E+03 15496   0.134E+03    0.331E+01
DAV:   2    -0.395594854327E+03   -0.10893E+03   -0.97273E+02 18816   0.171E+02    0.218E+01
DAV:   3    -0.400024871745E+03   -0.44300E+01   -0.70598E+01 17128   0.114E+02    0.121E+01
DAV:   4    -0.401537038179E+03   -0.15122E+01   -0.18791E+01 19200   0.514E+01    0.861E+00
DAV:   5    -0.401367802643E+03    0.16924E+00   -0.27253E+00 20264   0.205E+01    0.350E+00
DAV:   6    -0.401370859049E+03   -0.30564E-02   -0.58751E-01 21376   0.979E+00    0.126E+00
DAV:   7    -0.401385373953E+03   -0.14515E-01   -0.11478E-01 19160   0.400E+00    0.363E-01
DAV:   8    -0.401387078499E+03   -0.17045E-02   -0.20026E-02 19736   0.145E+00    0.237E-01
DAV:   9    -0.401387214630E+03   -0.13613E-03   -0.38878E-03 19976   0.626E-01    0.124E-01
DAV:  10    -0.401387219789E+03   -0.51594E-05   -0.91021E-04 21528   0.275E-01    0.490E-02
DAV:  11    -0.401387241133E+03   -0.21343E-04   -0.25734E-04 20224   0.187E-01    0.338E-02
DAV:  12    -0.401387239506E+03    0.16269E-05   -0.68138E-05 17232   0.975E-02    0.123E-02
DAV:  13    -0.401387232040E+03    0.74660E-05   -0.17164E-05  9952   0.432E-02    0.753E-03
DAV:  14    -0.401387229721E+03    0.23189E-05   -0.64436E-06  9184   0.379E-02    0.154E-03
DAV:  15    -0.401387229286E+03    0.43516E-06   -0.25647E-06  8752   0.129E-02
   1 F= -.40138723E+03 E0= -.40138723E+03  d E =0.000000E+00  mag=    -0.0000
