       N       E                     dE             d eps       ncg     rms          rms(c)
DAV:   1    -0.383118064399E+03   -0.38312E+03   -0.21347E+02  9088   0.222E+02    0.469E+01
DAV:   2    -0.389702108871E+03   -0.65840E+01   -0.37222E+01 15008   0.792E+01    0.233E+01
DAV:   3    -0.393135724402E+03   -0.34336E+01   -0.10634E+01 15008   0.300E+01    0.750E+00
DAV:   4    -0.393228632479E+03   -0.92908E-01   -0.41956E+00 12784   0.302E+01    0.281E+00
DAV:   5    -0.393219815947E+03    0.88165E-02   -0.10989E+00 12816   0.162E+01    0.162E+00
DAV:   6    -0.393222173284E+03   -0.23573E-02   -0.15774E-01 14464   0.389E+00    0.105E+00
DAV:   7    -0.393220973805E+03    0.11995E-02   -0.44306E-02 14192   0.148E+00    0.461E-01
DAV:   8    -0.393222216254E+03   -0.12424E-02   -0.99024E-03 13232   0.974E-01    0.191E-01
DAV:   9    -0.393222447233E+03   -0.23098E-03   -0.15394E-03 14704   0.444E-01    0.905E-02
DAV:  10    -0.393222470108E+03   -0.22875E-04   -0.46133E-04 13428   0.200E-01    0.539E-02
DAV:  11    -0.393222491523E+03   -0.21416E-04   -0.98305E-05 13936   0.898E-02    0.219E-02
DAV:  12    -0.393222488274E+03    0.32494E-05   -0.19341E-05 10552   0.435E-02    0.129E-02
DAV:  13    -0.393222485268E+03    0.30063E-05   -0.64802E-06  8112   0.252E-02    0.527E-03
DAV:  14    -0.393222482781E+03    0.24866E-05   -0.19398E-06  6448   0.154E-02    0.276E-03
DAV:  15    -0.393222482136E+03    0.64459E-06   -0.59358E-07  5728   0.109E-02
   1 F= -.39322248E+03 E0= -.39322242E+03  d E =-.129387E-03  mag=    43.1854
