 vasp.5.4.4.18Apr17-6-g9f103f2a35 (build Oct 10 2019 09:51:33) complex          
  
 executed on   carbon_intel19_gpu date 2020.09.25  17:36:00
 running on    1 total cores
 distrk:  each k-point on    1 cores,    1 groups
 distr:  one band on NCORES_PER_BAND=   1 cores,    1 groups


--------------------------------------------------------------------------------------------------------


 INCAR:
 POTCAR:    PAW_PBE Ni_sv_GW 05Dec2013            
 POTCAR:    PAW_PBE O_GW 19Mar2012                
 POTCAR:    PAW_PBE Ni_sv_GW 05Dec2013            
   VRHFIN =Ni:                                                                  
   LEXCH  = PE                                                                  
   EATOM  =  4642.8712 eV,  341.2414 Ry                                         
                                                                                
   TITEL  = PAW_PBE Ni_sv_GW 05Dec2013                                          
   LULTRA =        F    use ultrasoft PP ?                                      
   IUNSCR =        1    unscreen: 0-lin 1-nonlin 2-no                           
   RPACOR =    1.400    partial core radius                                     
   POMASS =   58.690; ZVAL   =   18.000    mass and valenz                      
   RCORE  =    1.900    outmost cutoff radius                                   
   RWIGS  =    2.100; RWIGS  =    1.111    wigner-seitz radius (au A)           
   ENMAX  =  389.645; ENMIN  =  292.234 eV                                      
   RCLOC  =    1.301    cutoff for local pot                                    
   LCOR   =        T    correct aug charges                                     
   LPAW   =        T    paw PP                                                  
   EAUG   = 1036.387                                                            
   RMAX   =    1.945    core radius for proj-oper                               
   RAUG   =    1.300    factor for augmentation sphere                          
   RDEP   =    1.972    radius for radial grids                                 
   RDEPT  =    1.600    core radius for aug-charge                              
                                                                                
   Atomic configuration                                                         
    8 entries                                                                   
     n  l   j            E        occ.                                          
     1  0  0.50     -8203.3308   2.0000                                         
     2  0  0.50      -972.7019   2.0000                                         
     2  1  1.50      -835.6236   6.0000                                         
     3  0  0.50      -102.6944   2.0000                                         
     3  1  1.50       -63.2363   6.0000                                         
     3  1  1.50       -68.0291   0.0000                                         
     3  2  2.50        -1.9692  10.0000                                         
     4  3  2.50        -1.3606   0.0000                                         
   Description                                                                  
     l       E           TYP  RCUT    TYP  RCUT                                 
     0   -102.6944069     23  1.400                                             
     0      1.3605826     23  1.700                                             
     0    204.0873900     23  1.400                                             
     1    -63.2363356     23  1.650                                             
     1    -68.0291300     23  1.650                                             
     1    136.0582600     23  1.650                                             
     2     -1.9691936     23  1.900                                             
     2     27.2116520     23  1.900                                             
     2    136.0582600     23  1.900                                             
     3     27.2116520     23  1.900                                             
     3    136.0582600     23  1.900                                             
  local pseudopotential read in
  partial core-charges read in
  partial kinetic energy density read in
  kinetic energy density of atom read in
  atomic valenz-charges read in
  non local Contribution for L=           0  read in
    real space projection operators read in
  non local Contribution for L=           0  read in
    real space projection operators read in
  non local Contribution for L=           0  read in
    real space projection operators read in
  non local Contribution for L=           1  read in
    real space projection operators read in
  non local Contribution for L=           1  read in
    real space projection operators read in
  non local Contribution for L=           1  read in
    real space projection operators read in
  non local Contribution for L=           2  read in
    real space projection operators read in
  non local Contribution for L=           2  read in
    real space projection operators read in
  non local Contribution for L=           2  read in
    real space projection operators read in
  non local Contribution for L=           3  read in
    real space projection operators read in
  non local Contribution for L=           3  read in
    real space projection operators read in
    PAW grid and wavefunctions read in
 
   number of l-projection  operators is LMAX  =          11
   number of lm-projection operators is LMMAX =          41
 
 POTCAR:    PAW_PBE O_GW 19Mar2012                
   VRHFIN =O: s2p4                                                              
   LEXCH  = PE                                                                  
   EATOM  =   432.3788 eV,   31.7789 Ry                                         
                                                                                
   TITEL  = PAW_PBE O_GW 19Mar2012                                              
   LULTRA =        F    use ultrasoft PP ?                                      
   IUNSCR =        1    unscreen: 0-lin 1-nonlin 2-no                           
   RPACOR =    0.800    partial core radius                                     
   POMASS =   16.000; ZVAL   =    6.000    mass and valenz                      
   RCORE  =    1.600    outmost cutoff radius                                   
   RWIGS  =    1.600; RWIGS  =    0.847    wigner-seitz radius (au A)           
   ENMAX  =  434.431; ENMIN  =  325.824 eV                                      
   ICORE  =        3    local potential                                         
   LCOR   =        T    correct aug charges                                     
   LPAW   =        T    paw PP                                                  
   EAUG   = 1139.609                                                            
   DEXC   =    0.000                                                            
   RMAX   =    1.629    core radius for proj-oper                               
   RAUG   =    1.300    factor for augmentation sphere                          
   RDEP   =    1.652    radius for radial grids                                 
   RDEPT  =    1.200    core radius for aug-charge                              
                                                                                
   Atomic configuration                                                         
    5 entries                                                                   
     n  l   j            E        occ.                                          
     1  0  0.50      -514.6923   2.0000                                         
     2  0  0.50       -23.9615   2.0000                                         
     2  1  0.50        -9.0305   4.0000                                         
     3  2  1.50        -9.5241   0.0000                                         
     4  3  2.50        -9.5241   0.0000                                         
   Description                                                                  
     l       E           TYP  RCUT    TYP  RCUT                                 
     0    -23.9615316     23  1.150                                             
     0    -25.3221142     23  1.150                                             
     0    244.9048680     23  1.300                                             
     1     -9.0304908     23  1.500                                             
     1     -6.9258396     23  1.500                                             
     1    122.4524340     23  1.500                                             
     2     13.6058260     23  1.500                                             
     2    190.4815640     23  1.600                                             
     3     54.4233040     23  1.400                                             
  local pseudopotential read in
  partial core-charges read in
  partial kinetic energy density read in
  kinetic energy density of atom read in
  atomic valenz-charges read in
  non local Contribution for L=           0  read in
    real space projection operators read in
  non local Contribution for L=           0  read in
    real space projection operators read in
  non local Contribution for L=           0  read in
    real space projection operators read in
  non local Contribution for L=           1  read in
    real space projection operators read in
  non local Contribution for L=           1  read in
    real space projection operators read in
  non local Contribution for L=           1  read in
    real space projection operators read in
  non local Contribution for L=           2  read in
    real space projection operators read in
  non local Contribution for L=           2  read in
    real space projection operators read in
    PAW grid and wavefunctions read in
 
   number of l-projection  operators is LMAX  =           8
   number of lm-projection operators is LMMAX =          22
 
 Optimization of the real space projectors (new method)

 maximal supplied QI-value         = 19.84
 optimisation between [QCUT,QGAM] = [ 12.50, 25.00] = [ 43.76,175.03] Ry 
 Optimized for a Real-space Cutoff    1.31 Angstroem

   l    n(q)    QCUT    max X(q) W(low)/X(q) W(high)/X(q)  e(spline) 
   0     10    12.501     2.300    0.65E-05    0.25E-06    0.79E-07
   0     10    12.501     7.576    0.25E-04    0.52E-05    0.18E-06
   0     10    12.501     1.388    0.34E-04    0.75E-05    0.48E-06
   1      9    12.501    11.002    0.11E-03    0.24E-03    0.54E-06
   1      9    12.501    14.537    0.90E-04    0.23E-03    0.70E-06
   1      9    12.501     3.893    0.34E-04    0.51E-04    0.68E-06
   2      9    12.501    14.869    0.32E-03    0.35E-03    0.49E-06
   2      9    12.501     7.291    0.12E-03    0.20E-03    0.30E-06
   2      9    12.501     6.907    0.35E-03    0.37E-03    0.52E-06
   3      8    12.501    10.598    0.33E-03    0.15E-03    0.57E-06
   3      8    12.501     2.997    0.28E-03    0.16E-03    0.51E-06
 Optimization of the real space projectors (new method)

 maximal supplied QI-value         = 23.62
 optimisation between [QCUT,QGAM] = [ 12.52, 25.04] = [ 43.89,175.56] Ry 
 Optimized for a Real-space Cutoff    1.35 Angstroem

   l    n(q)    QCUT    max X(q) W(low)/X(q) W(high)/X(q)  e(spline) 
   0     10    12.519   116.464    0.13E-03    0.15E-03    0.46E-05
   0     10    12.519   116.329    0.13E-03    0.15E-03    0.44E-05
   0     10    12.519     0.942    0.35E-04    0.90E-04    0.23E-05
   1     10    12.519   133.003    0.28E-03    0.77E-04    0.26E-05
   1     10    12.519   116.443    0.28E-03    0.76E-04    0.26E-05
   1     10    12.519     2.481    0.45E-03    0.95E-04    0.45E-05
   2      9    12.519     2.237    0.21E-04    0.33E-04    0.21E-06
   2      9    12.519     2.497    0.16E-03    0.12E-03    0.32E-06
  PAW_PBE Ni_sv_GW 05Dec2013            :
 energy of atom  1       EATOM=-4642.8712
 kinetic energy error for atom=    0.0555 (will be added to EATOM!!)
  PAW_PBE O_GW 19Mar2012                :
 energy of atom  2       EATOM= -432.3788
 kinetic energy error for atom=    0.0188 (will be added to EATOM!!)
 
 
 POSCAR: NiO                                     
  positions in direct lattice
  No initial velocities read in
 exchange correlation table for  LEXCH =        8
   RHO(1)=    0.500       N(1)  =     2000
   RHO(2)=  100.500       N(2)  =     4000
 


--------------------------------------------------------------------------------------------------------


 ion  position               nearest neighbor table
   1  0.000  0.000  0.000-  36 2.09  38 2.09  45 2.09  50 2.09  53 2.09  64 2.09
   2  0.250  0.250  0.500-  33 2.09  39 2.09  46 2.09  51 2.09  54 2.09  61 2.09
   3  0.500  0.500  0.000-  34 2.09  40 2.09  47 2.09  52 2.09  55 2.09  62 2.09
   4  0.750  0.750  0.500-  35 2.09  37 2.09  48 2.09  49 2.09  56 2.09  63 2.09
   5  0.250  0.500  0.250-  33 2.09  40 2.09  42 2.09  52 2.09  54 2.09  57 2.09
   6  0.500  0.750  0.750-  34 2.09  37 2.09  43 2.09  49 2.09  55 2.09  58 2.09
   7  0.750  0.000  0.250-  35 2.09  38 2.09  44 2.09  50 2.09  56 2.09  59 2.09
   8  0.000  0.250  0.750-  36 2.09  39 2.09  41 2.09  51 2.09  53 2.09  60 2.09
   9  0.500  0.000  0.500-  37 2.09  44 2.09  46 2.09  56 2.09  58 2.09  61 2.09
  10  0.750  0.250  0.000-  38 2.09  41 2.09  47 2.09  53 2.09  59 2.09  62 2.09
  11  0.000  0.500  0.500-  39 2.09  42 2.09  48 2.09  54 2.09  60 2.09  63 2.09
  12  0.250  0.750  0.000-  40 2.09  43 2.09  45 2.09  55 2.09  57 2.09  64 2.09
  13  0.750  0.500  0.750-  34 2.09  41 2.09  48 2.09  49 2.09  60 2.09  62 2.09
  14  0.000  0.750  0.250-  35 2.09  42 2.09  45 2.09  50 2.09  57 2.09  63 2.09
  15  0.250  0.000  0.750-  36 2.09  43 2.09  46 2.09  51 2.09  58 2.09  64 2.09
  16  0.500  0.250  0.250-  33 2.09  44 2.09  47 2.09  52 2.09  59 2.09  61 2.09
  17  0.500  0.500  0.500-  34 2.09  37 2.09  48 2.09  52 2.09  54 2.09  61 2.09
  18  0.750  0.750  0.000-  35 2.09  38 2.09  45 2.09  49 2.09  55 2.09  62 2.09
  19  0.000  0.000  0.500-  36 2.09  39 2.09  46 2.09  50 2.09  56 2.09  63 2.09
  20  0.250  0.250  0.000-  33 2.09  40 2.09  47 2.09  51 2.09  53 2.09  64 2.09
  21  0.750  0.000  0.750-  36 2.09  38 2.09  41 2.09  49 2.09  56 2.09  58 2.09
  22  0.000  0.250  0.250-  33 2.09  39 2.09  42 2.09  50 2.09  53 2.09  59 2.09
  23  0.250  0.500  0.750-  34 2.09  40 2.09  43 2.09  51 2.09  54 2.09  60 2.09
  24  0.500  0.750  0.250-  35 2.09  37 2.09  44 2.09  52 2.09  55 2.09  57 2.09
  25  0.000  0.500  0.000-  40 2.09  42 2.09  45 2.09  53 2.09  60 2.09  62 2.09
  26  0.250  0.750  0.500-  37 2.09  43 2.09  46 2.09  54 2.09  57 2.09  63 2.09
  27  0.500  0.000  0.000-  38 2.09  44 2.09  47 2.09  55 2.09  58 2.09  64 2.09
  28  0.750  0.250  0.500-  39 2.09  41 2.09  48 2.09  56 2.09  59 2.09  61 2.09
  29  0.250  0.000  0.250-  33 2.09  44 2.09  46 2.09  50 2.09  57 2.09  64 2.09
  30  0.500  0.250  0.750-  34 2.09  41 2.09  47 2.09  51 2.09  58 2.09  61 2.09
  31  0.750  0.500  0.250-  35 2.09  42 2.09  48 2.09  52 2.09  59 2.09  62 2.09
  32  0.000  0.750  0.750-  36 2.09  43 2.09  45 2.09  49 2.09  60 2.09  63 2.09
  33  0.250  0.250  0.250-   2 2.09   5 2.09  16 2.09  20 2.09  22 2.09  29 2.09
  34  0.500  0.500  0.750-   3 2.09   6 2.09  13 2.09  17 2.09  23 2.09  30 2.09
  35  0.750  0.750  0.250-   4 2.09   7 2.09  14 2.09  18 2.09  24 2.09  31 2.09
  36  0.000  0.000  0.750-   1 2.09   8 2.09  15 2.09  19 2.09  21 2.09  32 2.09
  37  0.500  0.750  0.500-   4 2.09   6 2.09   9 2.09  17 2.09  24 2.09  26 2.09
  38  0.750  0.000  0.000-   1 2.09   7 2.09  10 2.09  18 2.09  21 2.09  27 2.09
  39  0.000  0.250  0.500-   2 2.09   8 2.09  11 2.09  19 2.09  22 2.09  28 2.09
  40  0.250  0.500  0.000-   3 2.09   5 2.09  12 2.09  20 2.09  23 2.09  25 2.09
  41  0.750  0.250  0.750-   8 2.09  10 2.09  13 2.09  21 2.09  28 2.09  30 2.09
  42  0.000  0.500  0.250-   5 2.09  11 2.09  14 2.09  22 2.09  25 2.09  31 2.09
  43  0.250  0.750  0.750-   6 2.09  12 2.09  15 2.09  23 2.09  26 2.09  32 2.09
  44  0.500  0.000  0.250-   7 2.09   9 2.09  16 2.09  24 2.09  27 2.09  29 2.09
  45  0.000  0.750  0.000-   1 2.09  12 2.09  14 2.09  18 2.09  25 2.09  32 2.09
  46  0.250  0.000  0.500-   2 2.09   9 2.09  15 2.09  19 2.09  26 2.09  29 2.09
  47  0.500  0.250  0.000-   3 2.09  10 2.09  16 2.09  20 2.09  27 2.09  30 2.09
  48  0.750  0.500  0.500-   4 2.09  11 2.09  13 2.09  17 2.09  28 2.09  31 2.09
  49  0.750  0.750  0.750-   4 2.09   6 2.09  13 2.09  18 2.09  21 2.09  32 2.09
  50  0.000  0.000  0.250-   1 2.09   7 2.09  14 2.09  19 2.09  22 2.09  29 2.09
  51  0.250  0.250  0.750-   2 2.09   8 2.09  15 2.09  20 2.09  23 2.09  30 2.09
  52  0.500  0.500  0.250-   3 2.09   5 2.09  16 2.09  17 2.09  24 2.09  31 2.09
  53  0.000  0.250  0.000-   1 2.09   8 2.09  10 2.09  20 2.09  22 2.09  25 2.09
  54  0.250  0.500  0.500-   2 2.09   5 2.09  11 2.09  17 2.09  23 2.09  26 2.09
  55  0.500  0.750  0.000-   3 2.09   6 2.09  12 2.09  18 2.09  24 2.09  27 2.09
  56  0.750  0.000  0.500-   4 2.09   7 2.09   9 2.09  19 2.09  21 2.09  28 2.09
  57  0.250  0.750  0.250-   5 2.09  12 2.09  14 2.09  24 2.09  26 2.09  29 2.09
  58  0.500  0.000  0.750-   6 2.09   9 2.09  15 2.09  21 2.09  27 2.09  30 2.09
  59  0.750  0.250  0.250-   7 2.09  10 2.09  16 2.09  22 2.09  28 2.09  31 2.09
  60  0.000  0.500  0.750-   8 2.09  11 2.09  13 2.09  23 2.09  25 2.09  32 2.09
  61  0.500  0.250  0.500-   2 2.09   9 2.09  16 2.09  17 2.09  28 2.09  30 2.09
  62  0.750  0.500  0.000-   3 2.09  10 2.09  13 2.09  18 2.09  25 2.09  31 2.09
  63  0.000  0.750  0.500-   4 2.09  11 2.09  14 2.09  19 2.09  26 2.09  32 2.09
  64  0.250  0.000  0.000-   1 2.09  12 2.09  15 2.09  20 2.09  27 2.09  29 2.09
 
  LATTYP: Found a simple cubic cell.
 ALAT       =     8.3781150000
  
  Lattice vectors:
  
 A1 = (   8.3781150000,   0.0000000000,   0.0000000000)
 A2 = (   0.0000000000,   8.3781150000,   0.0000000000)
 A3 = (   0.0000000000,   0.0000000000,   8.3781150000)


Analysis of symmetry for initial positions (statically):
=====================================================================
 Subroutine PRICEL returns following result:
 
  LATTYP: Found a face centered cubic cell.
 ALAT       =     4.1890575000
  
  Lattice vectors:
  
 A1 = (   2.0945287500,   2.0945287500,   0.0000000000)
 A2 = (   2.0945287500,   0.0000000000,  -2.0945287500)
 A3 = (   0.0000000000,   2.0945287500,  -2.0945287500)
 
  32 primitive cells build up your supercell.
 

 Routine SETGRP: Setting up the symmetry group for a 
 simple cubic supercell.


 Subroutine GETGRP returns: Found 48 space group operations
 (whereof 48 operations were pure point group operations)
 out of a pool of 48 trial point group operations.


The static configuration has the point symmetry O_h .


Analysis of symmetry for dynamics (positions and initial velocities):
=====================================================================
 Subroutine PRICEL returns following result:
 
  LATTYP: Found a face centered cubic cell.
 ALAT       =     4.1890575000
  
  Lattice vectors:
  
 A1 = (   2.0945287500,   2.0945287500,   0.0000000000)
 A2 = (   2.0945287500,   0.0000000000,  -2.0945287500)
 A3 = (   0.0000000000,   2.0945287500,  -2.0945287500)
 
  32 primitive cells build up your supercell.
 

 Routine SETGRP: Setting up the symmetry group for a 
 simple cubic supercell.


 Subroutine GETGRP returns: Found 48 space group operations
 (whereof 48 operations were pure point group operations)
 out of a pool of 48 trial point group operations.


The dynamic configuration has the point symmetry O_h .


Analysis of structural, dynamic, and magnetic symmetry:
=====================================================================
 Subroutine PRICEL returns following result:
 
  LATTYP: Found a face centered cubic cell.
 ALAT       =     4.1890575000
  
  Lattice vectors:
  
 A1 = (   2.0945287500,   2.0945287500,   0.0000000000)
 A2 = (   2.0945287500,   0.0000000000,  -2.0945287500)
 A3 = (   0.0000000000,   2.0945287500,  -2.0945287500)
 
  32 primitive cells build up your supercell.
 

 Routine SETGRP: Setting up the symmetry group for a 
 simple cubic supercell.


 Subroutine GETGRP returns: Found 12 space group operations
 (whereof 12 operations were pure point group operations)
 out of a pool of 48 trial point group operations.


The magnetic configuration has the point symmetry D_3d.


 Subroutine INISYM returns: Found 12 space group operations
 (whereof 12 operations are pure point group operations),
 and found    32 'primitive' translations

 
 
 KPOINTS: k-points                                

Automatic generation of k-mesh.
Space group operators:
 irot       det(A)        alpha          n_x          n_y          n_z        tau_x        tau_y        tau_z
    1     1.000000     0.000000     1.000000     0.000000     0.000000     0.000000     0.000000     0.000000
    2    -1.000000     0.000000     1.000000     0.000000     0.000000     0.000000     0.000000     0.000000
    3     1.000000   120.000000    -0.577350    -0.577350    -0.577350     0.000000     0.000000     0.000000
    4    -1.000000   120.000000    -0.577350    -0.577350    -0.577350     0.000000     0.000000     0.000000
    5     1.000000   120.000000     0.577350     0.577350     0.577350     0.000000     0.000000     0.000000
    6    -1.000000   120.000000     0.577350     0.577350     0.577350     0.000000     0.000000     0.000000
    7     1.000000   180.000000     0.000000    -0.707107     0.707107     0.000000     0.000000     0.000000
    8    -1.000000   180.000000     0.000000    -0.707107     0.707107     0.000000     0.000000     0.000000
    9     1.000000   180.000000     0.707107    -0.707107     0.000000     0.000000     0.000000     0.000000
   10    -1.000000   180.000000     0.707107    -0.707107     0.000000     0.000000     0.000000     0.000000
   11     1.000000   180.000000     0.707107     0.000000    -0.707107     0.000000     0.000000     0.000000
   12    -1.000000   180.000000     0.707107     0.000000    -0.707107     0.000000     0.000000     0.000000
 
 Subroutine IBZKPT returns following result:
 ===========================================
 
 Found      6 irreducible k-points:
 
 Following reciprocal coordinates:
            Coordinates               Weight
  0.000000  0.000000  0.000000      1.000000
  0.333333  0.000000  0.000000      6.000000
  0.333333  0.333333  0.000000      6.000000
 -0.333333  0.333333  0.000000      6.000000
  0.333333  0.333333  0.333333      2.000000
 -0.333333  0.333333  0.333333      6.000000
 
 Following cartesian coordinates:
            Coordinates               Weight
  0.000000  0.000000  0.000000      1.000000
  0.333333  0.000000  0.000000      6.000000
  0.333333  0.333333  0.000000      6.000000
 -0.333333  0.333333  0.000000      6.000000
  0.333333  0.333333  0.333333      2.000000
 -0.333333  0.333333  0.333333      6.000000
 


--------------------------------------------------------------------------------------------------------




 Dimension of arrays:
   k-points           NKPTS =      6   k-points in BZ     NKDIM =      6   number of bands    NBANDS=    460
   number of dos      NEDOS =    301   number of ions     NIONS =     64
   non local maximal  LDIM  =     11   non local SUM 2l+1 LMDIM =     41
   total plane-waves  NPLWV = 125000
   max r-space proj   IRMAX =   2220   max aug-charges    IRDMAX=   4892
   dimension x,y,z NGX =    50 NGY =   50 NGZ =   50
   dimension x,y,z NGXF=   100 NGYF=  100 NGZF=  100
   support grid    NGXF=   100 NGYF=  100 NGZF=  100
   ions per type =              32  32
   NGX,Y,Z   is equivalent  to a cutoff of   9.92,  9.92,  9.92 a.u.
   NGXF,Y,Z  is equivalent  to a cutoff of  19.84, 19.84, 19.84 a.u.

 SYSTEM =  NiO                                     
 POSCAR =  NiO                                     

 Startparameter for this run:
   NWRITE =      2    write-flag & timer
   PREC   = normal    normal or accurate (medium, high low for compatibility)
   ISTART =      1    job   : 0-new  1-cont  2-samecut
   ICHARG =      1    charge: 1-file 2-atom 10-const
   ISPIN  =      2    spin polarized calculation?
   LNONCOLLINEAR =      F non collinear calculations
   LSORBIT =      F    spin-orbit coupling
   INIWAV =      1    electr: 0-lowe 1-rand  2-diag
   LASPH  =      F    aspherical Exc in radial PAW
   METAGGA=      F    non-selfconsistent MetaGGA calc.

 Electronic Relaxation 1
   ENCUT  =  600.0 eV  44.10 Ry    6.64 a.u.  16.73 16.73 16.73*2*pi/ulx,y,z
   ENINI  =  600.0     initial cutoff
   ENAUG  = 1200.0 eV  augmentation charge cutoff
   NELM   =    100;   NELMIN=  2; NELMDL=  0     # of ELM steps 
   EDIFF  = 0.1E-05   stopping-criterion for ELM
   LREAL  =      T    real-space projection
   NLSPLINE    = F    spline interpolate recip. space projectors
   LCOMPAT=      F    compatible to vasp.4.4
   GGA_COMPAT  = T    GGA compatible to vasp.4.4-vasp.4.6
   LMAXPAW     = -100 max onsite density
   LMAXMIX     =    4 max onsite mixed and CHGCAR
   VOSKOWN=      0    Vosko Wilk Nusair interpolation
   ROPT   =   -0.00050  -0.00050
 Ionic relaxation
   EDIFFG = -.1E-03   stopping-criterion for IOM
   NSW    =      0    number of steps for IOM
   NBLOCK =      1;   KBLOCK =      1    inner block; outer block 
   IBRION =     -1    ionic relax: 0-MD 1-quasi-New 2-CG
   NFREE  =      1    steps in history (QN), initial steepest desc. (CG)
   ISIF   =      2    stress and relaxation
   IWAVPR =     10    prediction:  0-non 1-charg 2-wave 3-comb
   ISYM   =      2    0-nonsym 1-usesym 2-fastsym
   LCORR  =      T    Harris-Foulkes like correction to forces

   POTIM  = 0.2000    time-step for ionic-motion
   TEIN   =    0.0    initial temperature
   TEBEG  =    0.0;   TEEND  =   0.0 temperature during run
   SMASS  =  -3.00    Nose mass-parameter (am)
   estimated Nose-frequenzy (Omega)   =  0.10E-29 period in steps =****** mass=  -0.160E-26a.u.
   SCALEE = 1.0000    scale energy and forces
   NPACO  =    256;   APACO  = 16.0  distance and # of slots for P.C.
   PSTRESS=    0.0 pullay stress

  Mass of Ions in am
   POMASS =  58.69 16.00
  Ionic Valenz
   ZVAL   =  18.00  6.00
  Atomic Wigner-Seitz radii
   RWIGS  =  -1.00 -1.00
  virtual crystal weights 
   VCA    =   1.00  1.00
   NELECT =     768.0000    total number of electrons
   NUPDOWN=      -1.0000    fix difference up-down

 DOS related values:
   EMIN   =  10.00;   EMAX   =-10.00  energy-range for DOS
   EFERMI =   0.00
   ISMEAR =     0;   SIGMA  =   0.00  broadening in eV -4-tet -1-fermi 0-gaus

 Electronic relaxation 2 (details)
   IALGO  =     38    algorithm
   LDIAG  =      T    sub-space diagonalisation (order eigenvalues)
   LSUBROT=      F    optimize rotation matrix (better conditioning)
   TURBO    =      0    0=normal 1=particle mesh
   IRESTART =      0    0=no restart 2=restart with 2 vectors
   NREBOOT  =      0    no. of reboots
   NMIN     =      0    reboot dimension
   EREF     =   0.00    reference energy to select bands
   IMIX   =      4    mixing-type and parameters
     AMIX     =   0.40;   BMIX     =  1.00
     AMIX_MAG =   1.60;   BMIX_MAG =  1.00
     AMIN     =   0.10
     WC   =   100.;   INIMIX=   1;  MIXPRE=   1;  MAXMIX= -45

 Intra band minimization:
   WEIMIN = 0.0000     energy-eigenvalue tresh-hold
   EBREAK =  0.54E-09  absolut break condition
   DEPER  =   0.30     relativ break condition  

   TIME   =   0.40     timestep for ELM

  volume/ion in A,a.u.               =       9.19        62.01
  Fermi-wavevector in a.u.,A,eV,Ry     =   1.789434  3.381539 43.566843  3.202073
  Thomas-Fermi vector in A             =   2.852408
 
 Write flags
   LWAVE        =      T    write WAVECAR
   LDOWNSAMPLE  =      F    k-point downsampling of WAVECAR
   LCHARG       =      T    write CHGCAR
   LVTOT        =      F    write LOCPOT, total local potential
   LVHAR        =      F    write LOCPOT, Hartree potential only
   LELF         =      F    write electronic localiz. function (ELF)
   LORBIT       =     11    0 simple, 1 ext, 2 COOP (PROOUT), +10 PAW based schemes


 Dipole corrections
   LMONO  =      F    monopole corrections only (constant potential shift)
   LDIPOL =      F    correct potential (dipole corrections)
   IDIPOL =      0    1-x, 2-y, 3-z, 4-all directions 
   EPSILON=  1.0000000 bulk dielectric constant

 Exchange correlation treatment:
   GGA     =    --    GGA type
   LEXCH   =     8    internal setting for exchange type
   VOSKOWN=      0    Vosko Wilk Nusair interpolation
   LHFCALC =     F    Hartree Fock is set to
   LHFONE  =     F    Hartree Fock one center treatment
   AEXX    =    0.0000 exact exchange contribution

 Linear response parameters
   LEPSILON=     F    determine dielectric tensor
   LRPA    =     F    only Hartree local field effects (RPA)
   LNABLA  =     F    use nabla operator in PAW spheres
   LVEL    =     F    velocity operator in full k-point grid
   LINTERFAST=   F  fast interpolation
   KINTER  =     0    interpolate to denser k-point grid
   CSHIFT  =0.1000    complex shift for real part using Kramers Kronig
   OMEGAMAX=  -1.0    maximum frequency
   DEG_THRESHOLD= 0.2000000E-02 threshold for treating states as degnerate
   RTIME   =   -0.100 relaxation time in fs
  (WPLASMAI=    0.000 imaginary part of plasma frequency in eV, 0.658/RTIME)
   DFIELD  = 0.0000000 0.0000000 0.0000000 field for delta impulse in time
 
 Orbital magnetization related:
   ORBITALMAG=     F  switch on orbital magnetization
   LCHIMAG   =     F  perturbation theory with respect to B field
   DQ        =  0.001000  dq finite difference perturbation B field
   LLRAUG    =     F  two centre corrections for induced B field



--------------------------------------------------------------------------------------------------------


 Static calculation
 charge density and potential will be updated during run
 spin polarized calculation
 Variant of blocked Davidson
 Davidson routine will perform the subspace rotation
 perform sub-space diagonalisation
    after iterative eigenvector-optimisation
 modified Broyden-mixing scheme, WC =      100.0
 initial mixing is a Kerker type mixing with AMIX =  0.4000 and BMIX =      1.0000
 Hartree-type preconditioning will be used
 using additional bands           76
 real space projection scheme for non local part
 use partial core corrections
 calculate Harris-corrections to forces 
   (improved forces if not selfconsistent)
 use gradient corrections 
 use of overlap-Matrix (Vanderbilt PP)
 Gauss-broadening in eV      SIGMA  =   0.00


--------------------------------------------------------------------------------------------------------


  energy-cutoff  :      600.00
  volume of cell :      588.08
      direct lattice vectors                 reciprocal lattice vectors
     8.378115000  0.000000000  0.000000000     0.119358591  0.000000000  0.000000000
     0.000000000  8.378115000  0.000000000     0.000000000  0.119358591  0.000000000
     0.000000000  0.000000000  8.378115000     0.000000000  0.000000000  0.119358591

  length of vectors
     8.378115000  8.378115000  8.378115000     0.119358591  0.119358591  0.119358591


 
 old parameters found on file WAVECAR:
  energy-cutoff  :      600.00
  volume of cell :      576.56
      direct lattice vectors                 reciprocal lattice vectors
     8.323012000  0.000000000  0.000000000     0.120148812  0.000000000  0.000000000
     0.000000000  8.323012000  0.000000000     0.000000000  0.120148812  0.000000000
     0.000000000  0.000000000  8.323012000     0.000000000  0.000000000  0.120148812

  length of vectors

 
 k-points in units of 2pi/SCALE and weight: k-points                                
   0.00000000  0.00000000  0.00000000       0.037
   0.33333333  0.00000000  0.00000000       0.222
   0.33333333  0.33333333  0.00000000       0.222
  -0.33333333  0.33333333  0.00000000       0.222
   0.33333333  0.33333333  0.33333333       0.074
  -0.33333333  0.33333333  0.33333333       0.222
 
 k-points in reciprocal lattice and weights: k-points                                
   0.00000000  0.00000000  0.00000000       0.037
   0.33333333  0.00000000  0.00000000       0.222
   0.33333333  0.33333333  0.00000000       0.222
  -0.33333333  0.33333333  0.00000000       0.222
   0.33333333  0.33333333  0.33333333       0.074
  -0.33333333  0.33333333  0.33333333       0.222
 
 position of ions in fractional coordinates (direct lattice) 
   0.00000000  0.00000000  0.00000000
   0.25000000  0.25000000  0.50000000
   0.50000000  0.50000000  0.00000000
   0.75000000  0.75000000  0.50000000
   0.25000000  0.50000000  0.25000000
   0.50000000  0.75000000  0.75000000
   0.75000000  0.00000000  0.25000000
   0.00000000  0.25000000  0.75000000
   0.50000000  0.00000000  0.50000000
   0.75000000  0.25000000  0.00000000
   0.00000000  0.50000000  0.50000000
   0.25000000  0.75000000  0.00000000
   0.75000000  0.50000000  0.75000000
   0.00000000  0.75000000  0.25000000
   0.25000000  0.00000000  0.75000000
   0.50000000  0.25000000  0.25000000
   0.50000000  0.50000000  0.50000000
   0.75000000  0.75000000  0.00000000
   0.00000000  0.00000000  0.50000000
   0.25000000  0.25000000  0.00000000
   0.75000000  0.00000000  0.75000000
   0.00000000  0.25000000  0.25000000
   0.25000000  0.50000000  0.75000000
   0.50000000  0.75000000  0.25000000
   0.00000000  0.50000000  0.00000000
   0.25000000  0.75000000  0.50000000
   0.50000000  0.00000000  0.00000000
   0.75000000  0.25000000  0.50000000
   0.25000000  0.00000000  0.25000000
   0.50000000  0.25000000  0.75000000
   0.75000000  0.50000000  0.25000000
   0.00000000  0.75000000  0.75000000
   0.25000000  0.25000000  0.25000000
   0.50000000  0.50000000  0.75000000
   0.75000000  0.75000000  0.25000000
   0.00000000  0.00000000  0.75000000
   0.50000000  0.75000000  0.50000000
   0.75000000  0.00000000  0.00000000
   0.00000000  0.25000000  0.50000000
   0.25000000  0.50000000  0.00000000
   0.75000000  0.25000000  0.75000000
   0.00000000  0.50000000  0.25000000
   0.25000000  0.75000000  0.75000000
   0.50000000  0.00000000  0.25000000
   0.00000000  0.75000000  0.00000000
   0.25000000  0.00000000  0.50000000
   0.50000000  0.25000000  0.00000000
   0.75000000  0.50000000  0.50000000
   0.75000000  0.75000000  0.75000000
   0.00000000  0.00000000  0.25000000
   0.25000000  0.25000000  0.75000000
   0.50000000  0.50000000  0.25000000
   0.00000000  0.25000000  0.00000000
   0.25000000  0.50000000  0.50000000
   0.50000000  0.75000000  0.00000000
   0.75000000  0.00000000  0.50000000
   0.25000000  0.75000000  0.25000000
   0.50000000  0.00000000  0.75000000
   0.75000000  0.25000000  0.25000000
   0.00000000  0.50000000  0.75000000
   0.50000000  0.25000000  0.50000000
   0.75000000  0.50000000  0.00000000
   0.00000000  0.75000000  0.50000000
   0.25000000  0.00000000  0.00000000
 
 position of ions in cartesian coordinates  (Angst):
   0.00000000  0.00000000  0.00000000
   2.09452875  2.09452875  4.18905750
   4.18905750  4.18905750  0.00000000
   6.28358625  6.28358625  4.18905750
   2.09452875  4.18905750  2.09452875
   4.18905750  6.28358625  6.28358625
   6.28358625  0.00000000  2.09452875
   0.00000000  2.09452875  6.28358625
   4.18905750  0.00000000  4.18905750
   6.28358625  2.09452875  0.00000000
   0.00000000  4.18905750  4.18905750
   2.09452875  6.28358625  0.00000000
   6.28358625  4.18905750  6.28358625
   0.00000000  6.28358625  2.09452875
   2.09452875  0.00000000  6.28358625
   4.18905750  2.09452875  2.09452875
   4.18905750  4.18905750  4.18905750
   6.28358625  6.28358625  0.00000000
   0.00000000  0.00000000  4.18905750
   2.09452875  2.09452875  0.00000000
   6.28358625  0.00000000  6.28358625
   0.00000000  2.09452875  2.09452875
   2.09452875  4.18905750  6.28358625
   4.18905750  6.28358625  2.09452875
   0.00000000  4.18905750  0.00000000
   2.09452875  6.28358625  4.18905750
   4.18905750  0.00000000  0.00000000
   6.28358625  2.09452875  4.18905750
   2.09452875  0.00000000  2.09452875
   4.18905750  2.09452875  6.28358625
   6.28358625  4.18905750  2.09452875
   0.00000000  6.28358625  6.28358625
   2.09452875  2.09452875  2.09452875
   4.18905750  4.18905750  6.28358625
   6.28358625  6.28358625  2.09452875
   0.00000000  0.00000000  6.28358625
   4.18905750  6.28358625  4.18905750
   6.28358625  0.00000000  0.00000000
   0.00000000  2.09452875  4.18905750
   2.09452875  4.18905750  0.00000000
   6.28358625  2.09452875  6.28358625
   0.00000000  4.18905750  2.09452875
   2.09452875  6.28358625  6.28358625
   4.18905750  0.00000000  2.09452875
   0.00000000  6.28358625  0.00000000
   2.09452875  0.00000000  4.18905750
   4.18905750  2.09452875  0.00000000
   6.28358625  4.18905750  4.18905750
   6.28358625  6.28358625  6.28358625
   0.00000000  0.00000000  2.09452875
   2.09452875  2.09452875  6.28358625
   4.18905750  4.18905750  2.09452875
   0.00000000  2.09452875  0.00000000
   2.09452875  4.18905750  4.18905750
   4.18905750  6.28358625  0.00000000
   6.28358625  0.00000000  4.18905750
   2.09452875  6.28358625  2.09452875
   4.18905750  0.00000000  6.28358625
   6.28358625  2.09452875  2.09452875
   0.00000000  4.18905750  6.28358625
   4.18905750  2.09452875  4.18905750
   6.28358625  4.18905750  0.00000000
   0.00000000  6.28358625  4.18905750
   2.09452875  0.00000000  0.00000000
 


--------------------------------------------------------------------------------------------------------


 k-point  1 :   0.0000 0.0000 0.0000  plane waves:   19549
 k-point  2 :   0.3333 0.0000 0.0000  plane waves:   19654
 k-point  3 :   0.3333 0.3333 0.0000  plane waves:   19586
 k-point  4 :  -0.3333 0.3333 0.0000  plane waves:   19586
 k-point  5 :   0.3333 0.3333 0.3333  plane waves:   19603
 k-point  6 :  -0.3333 0.3333 0.3333  plane waves:   19603

 maximum and minimum number of plane-waves per node :     19654    19549

 maximum number of plane-waves:     19654
 maximum index in each direction: 
   IXMAX=   17   IYMAX=   16   IZMAX=   16
   IXMIN=  -17   IYMIN=  -17   IZMIN=  -17


 serial   3D FFT for wavefunctions
 parallel 3D FFT for charge:
    minimum data exchange during FFTs selected (reduces bandwidth)


 total amount of memory used by VASP MPI-rank0  2118346. kBytes
=======================================================================

   base      :      30000. kBytes
   nonlr-proj:      38044. kBytes
   fftplans  :      34720. kBytes
   grid      :      91360. kBytes
   one-center:      10328. kBytes
   wavefun   :    1913894. kBytes
 
     INWAV:  cpu time    1.4868: real time    1.4863
 Broyden mixing: mesh for mixing (old mesh)
   NGX = 33   NGY = 33   NGZ = 33
  (NGX  =100   NGY  =100   NGZ  =100)
  gives a total of  35937 points

 initial charge density was supplied:
 number of electron     768.0003318 magnetization       0.0000000
 keeping initial charge density in first step


--------------------------------------------------------------------------------------------------------


 Maximum index for non-local projection operator         2176
 Maximum index for augmentation-charges         4553 (set IRDMAX)


--------------------------------------------------------------------------------------------------------


 First call to EWALD:  gamma=   0.212
 Maximum number of real-space cells 3x 3x 3
 Maximum number of reciprocal cells 3x 3x 3

    FEWALD:  cpu time    0.0131: real time    0.0131


----------------------------------------- Iteration    1(   1)  ---------------------------------------


    POTLOK:  cpu time    0.9572: real time    0.9569
    SETDIJ:  cpu time    0.3956: real time    0.3954
     EDDAV:  cpu time   17.4505: real time   17.4758
       DOS:  cpu time    0.0087: real time    0.0087
    CHARGE:  cpu time    4.4189: real time    4.4177
    MIXING:  cpu time    0.0251: real time    0.0251
    --------------------------------------------
      LOOP:  cpu time   23.2585: real time   23.2821

 eigenvalue-minimisations  : 15496
 total energy-change (2. order) :-0.2866628E+03  (-0.2551701E+03)
 number of electron     768.0004970 magnetization       0.0000000
 augmentation part      309.9569116 magnetization       0.0000000

 Broyden mixing:
  rms(total) = 0.33139E+01    rms(broyden)= 0.32980E+01
  rms(prec ) = 0.34071E+01
  weight for this iteration     100.00

 Free energy of the ion-electron system (eV)
  ---------------------------------------------------
  alpha Z        PSCENC =      5395.69248661
  Ewald energy   TEWEN  =   -103725.60568214
  -Hartree energ DENC   =    -47218.96024685
  -exchange      EXHF   =         0.00000000
  -V(xc)+E(xc)   XCENC  =      5116.52434971
  PAW double counting   =    142077.22770907  -148126.97835835
  entropy T*S    EENTRO =        -0.00037679
  eigenvalues    EBANDS =    -16210.18504248
  atomic energy  EATOM  =    162405.62235658
  Solvation  Ediel_sol  =         0.00000000
  ---------------------------------------------------
  free energy    TOTEN  =      -286.66280464 eV

  energy without entropy =     -286.66242784  energy(sigma->0) =     -286.66261624


--------------------------------------------------------------------------------------------------------




----------------------------------------- Iteration    1(   2)  ---------------------------------------


    POTLOK:  cpu time    0.9665: real time    0.9660
    SETDIJ:  cpu time    0.4012: real time    0.4010
     EDDAV:  cpu time   19.9687: real time   19.9931
       DOS:  cpu time    0.0011: real time    0.0011
    CHARGE:  cpu time    4.3921: real time    4.3909
    MIXING:  cpu time    0.0265: real time    0.0265
    --------------------------------------------
      LOOP:  cpu time   25.7568: real time   25.7792

 eigenvalue-minimisations  : 18816
 total energy-change (2. order) :-0.1089320E+03  (-0.9727293E+02)
 number of electron     768.0004569 magnetization       0.0000000
 augmentation part      314.0921736 magnetization       0.0000000

 Broyden mixing:
  rms(total) = 0.21756E+01    rms(broyden)= 0.21621E+01
  rms(prec ) = 0.24769E+01
  weight for this iteration     100.00

 eigenvalues of (default mixing * dielectric matrix)
  average eigenvalue GAMMA=   0.7701
  0.7701

 Free energy of the ion-electron system (eV)
  ---------------------------------------------------
  alpha Z        PSCENC =      5395.69248661
  Ewald energy   TEWEN  =   -103725.60568214
  -Hartree energ DENC   =    -47452.08410193
  -exchange      EXHF   =         0.00000000
  -V(xc)+E(xc)   XCENC  =      5122.21437965
  PAW double counting   =    142886.86629073  -148947.16832805
  entropy T*S    EENTRO =         0.00000000
  eigenvalues    EBANDS =    -16081.13225577
  atomic energy  EATOM  =    162405.62235658
  Solvation  Ediel_sol  =         0.00000000
  ---------------------------------------------------
  free energy    TOTEN  =      -395.59485433 eV

  energy without entropy =     -395.59485433  energy(sigma->0) =     -395.59485433


--------------------------------------------------------------------------------------------------------




----------------------------------------- Iteration    1(   3)  ---------------------------------------


    POTLOK:  cpu time    0.9712: real time    0.9708
    SETDIJ:  cpu time    0.4006: real time    0.4004
     EDDAV:  cpu time   18.6809: real time   18.6849
       DOS:  cpu time    0.0011: real time    0.0011
    CHARGE:  cpu time    4.3636: real time    4.3624
    MIXING:  cpu time    0.0280: real time    0.0280
    --------------------------------------------
      LOOP:  cpu time   24.4462: real time   24.4483

 eigenvalue-minimisations  : 17128
 total energy-change (2. order) :-0.4430017E+01  (-0.7059773E+01)
 number of electron     768.0004401 magnetization       0.0000000
 augmentation part      308.7525041 magnetization       0.0000000

 Broyden mixing:
  rms(total) = 0.12132E+01    rms(broyden)= 0.12094E+01
  rms(prec ) = 0.12879E+01
  weight for this iteration     100.00

 eigenvalues of (default mixing * dielectric matrix)
  average eigenvalue GAMMA=   0.7094
  0.7094  0.7094

 Free energy of the ion-electron system (eV)
  ---------------------------------------------------
  alpha Z        PSCENC =      5395.69248661
  Ewald energy   TEWEN  =   -103725.60568214
  -Hartree energ DENC   =    -47780.80462185
  -exchange      EXHF   =         0.00000000
  -V(xc)+E(xc)   XCENC  =      5133.94163762
  PAW double counting   =    142769.34029687  -148900.61198221
  entropy T*S    EENTRO =         0.00000000
  eigenvalues    EBANDS =    -15697.59936323
  atomic energy  EATOM  =    162405.62235658
  Solvation  Ediel_sol  =         0.00000000
  ---------------------------------------------------
  free energy    TOTEN  =      -400.02487174 eV

  energy without entropy =     -400.02487174  energy(sigma->0) =     -400.02487174


--------------------------------------------------------------------------------------------------------




----------------------------------------- Iteration    1(   4)  ---------------------------------------


    POTLOK:  cpu time    0.9676: real time    0.9673
    SETDIJ:  cpu time    0.3992: real time    0.3991
     EDDAV:  cpu time   20.3117: real time   20.3587
       DOS:  cpu time    0.0009: real time    0.0009
    CHARGE:  cpu time    4.3745: real time    4.3741
    MIXING:  cpu time    0.0318: real time    0.0318
    --------------------------------------------
      LOOP:  cpu time   26.0866: real time   26.1327

 eigenvalue-minimisations  : 19200
 total energy-change (2. order) :-0.1512166E+01  (-0.1879102E+01)
 number of electron     768.0004453 magnetization       0.0000000
 augmentation part      310.4061952 magnetization       0.0000000

 Broyden mixing:
  rms(total) = 0.86122E+00    rms(broyden)= 0.86104E+00
  rms(prec ) = 0.95586E+00
  weight for this iteration     100.00

 eigenvalues of (default mixing * dielectric matrix)
  average eigenvalue GAMMA=   0.9148
  1.2923  0.9413  0.5108

 Free energy of the ion-electron system (eV)
  ---------------------------------------------------
  alpha Z        PSCENC =      5395.69248661
  Ewald energy   TEWEN  =   -103725.60568214
  -Hartree energ DENC   =    -47705.00790114
  -exchange      EXHF   =         0.00000000
  -V(xc)+E(xc)   XCENC  =      5134.23381743
  PAW double counting   =    142059.47507269  -148137.79871449
  entropy T*S    EENTRO =        -0.00000000
  eigenvalues    EBANDS =    -15828.14847372
  atomic energy  EATOM  =    162405.62235658
  Solvation  Ediel_sol  =         0.00000000
  ---------------------------------------------------
  free energy    TOTEN  =      -401.53703818 eV

  energy without entropy =     -401.53703818  energy(sigma->0) =     -401.53703818


--------------------------------------------------------------------------------------------------------




----------------------------------------- Iteration    1(   5)  ---------------------------------------


    POTLOK:  cpu time    0.9653: real time    0.9649
    SETDIJ:  cpu time    0.4000: real time    0.3999
     EDDAV:  cpu time   21.1383: real time   21.1506
       DOS:  cpu time    0.0011: real time    0.0011
    CHARGE:  cpu time    4.3779: real time    4.3774
    MIXING:  cpu time    0.0330: real time    0.0330
    --------------------------------------------
      LOOP:  cpu time   26.9162: real time   26.9275

 eigenvalue-minimisations  : 20264
 total energy-change (2. order) : 0.1692355E+00  (-0.2725302E+00)
 number of electron     768.0004430 magnetization       0.0000000
 augmentation part      309.4674891 magnetization       0.0000000

 Broyden mixing:
  rms(total) = 0.35036E+00    rms(broyden)= 0.35015E+00
  rms(prec ) = 0.39685E+00
  weight for this iteration     100.00

 eigenvalues of (default mixing * dielectric matrix)
  average eigenvalue GAMMA=   1.0704
  1.9873  0.8546  0.8546  0.5850

 Free energy of the ion-electron system (eV)
  ---------------------------------------------------
  alpha Z        PSCENC =      5395.69248661
  Ewald energy   TEWEN  =   -103725.60568214
  -Hartree energ DENC   =    -47812.87131382
  -exchange      EXHF   =         0.00000000
  -V(xc)+E(xc)   XCENC  =      5139.41046757
  PAW double counting   =    141240.84868091  -147304.51919739
  entropy T*S    EENTRO =         0.00000000
  eigenvalues    EBANDS =    -15739.94560096
  atomic energy  EATOM  =    162405.62235658
  Solvation  Ediel_sol  =         0.00000000
  ---------------------------------------------------
  free energy    TOTEN  =      -401.36780264 eV

  energy without entropy =     -401.36780264  energy(sigma->0) =     -401.36780264


--------------------------------------------------------------------------------------------------------




----------------------------------------- Iteration    1(   6)  ---------------------------------------


    POTLOK:  cpu time    0.9530: real time    0.9528
    SETDIJ:  cpu time    0.3995: real time    0.3995
     EDDAV:  cpu time   21.8224: real time   21.8559
       DOS:  cpu time    0.0012: real time    0.0012
    CHARGE:  cpu time    4.3624: real time    4.3620
    MIXING:  cpu time    0.0402: real time    0.0402
    --------------------------------------------
      LOOP:  cpu time   27.5794: real time   27.6122

 eigenvalue-minimisations  : 21376
 total energy-change (2. order) :-0.3056406E-02  (-0.5875144E-01)
 number of electron     768.0004419 magnetization       0.0000000
 augmentation part      309.1204764 magnetization       0.0000000

 Broyden mixing:
  rms(total) = 0.12623E+00    rms(broyden)= 0.12599E+00
  rms(prec ) = 0.13153E+00
  weight for this iteration     100.00

 eigenvalues of (default mixing * dielectric matrix)
  average eigenvalue GAMMA=   1.1211
  2.3781  1.1103  0.5816  0.7678  0.7678

 Free energy of the ion-electron system (eV)
  ---------------------------------------------------
  alpha Z        PSCENC =      5395.69248661
  Ewald energy   TEWEN  =   -103725.60568214
  -Hartree energ DENC   =    -47833.98159694
  -exchange      EXHF   =         0.00000000
  -V(xc)+E(xc)   XCENC  =      5139.74429854
  PAW double counting   =    141010.57207708  -147071.15900461
  entropy T*S    EENTRO =         0.00000000
  eigenvalues    EBANDS =    -15722.25579417
  atomic energy  EATOM  =    162405.62235658
  Solvation  Ediel_sol  =         0.00000000
  ---------------------------------------------------
  free energy    TOTEN  =      -401.37085905 eV

  energy without entropy =     -401.37085905  energy(sigma->0) =     -401.37085905


--------------------------------------------------------------------------------------------------------




----------------------------------------- Iteration    1(   7)  ---------------------------------------


    POTLOK:  cpu time    0.9648: real time    0.9644
    SETDIJ:  cpu time    0.4034: real time    0.4035
     EDDAV:  cpu time   20.3379: real time   20.3482
       DOS:  cpu time    0.0011: real time    0.0011
    CHARGE:  cpu time    4.3602: real time    4.3597
    MIXING:  cpu time    0.0393: real time    0.0393
    --------------------------------------------
      LOOP:  cpu time   26.1074: real time   26.1168

 eigenvalue-minimisations  : 19160
 total energy-change (2. order) :-0.1451490E-01  (-0.1147792E-01)
 number of electron     768.0004420 magnetization       0.0000000
 augmentation part      309.1495922 magnetization       0.0000000

 Broyden mixing:
  rms(total) = 0.36284E-01    rms(broyden)= 0.36245E-01
  rms(prec ) = 0.39722E-01
  weight for this iteration     100.00

 eigenvalues of (default mixing * dielectric matrix)
  average eigenvalue GAMMA=   1.1123
  2.5455  1.0405  1.0405  0.5834  0.7320  0.7320

 Free energy of the ion-electron system (eV)
  ---------------------------------------------------
  alpha Z        PSCENC =      5395.69248661
  Ewald energy   TEWEN  =   -103725.60568214
  -Hartree energ DENC   =    -47828.91090346
  -exchange      EXHF   =         0.00000000
  -V(xc)+E(xc)   XCENC  =      5139.58692261
  PAW double counting   =    140844.75672112  -146905.17928540
  entropy T*S    EENTRO =         0.00000000
  eigenvalues    EBANDS =    -15727.34798988
  atomic energy  EATOM  =    162405.62235658
  Solvation  Ediel_sol  =         0.00000000
  ---------------------------------------------------
  free energy    TOTEN  =      -401.38537395 eV

  energy without entropy =     -401.38537395  energy(sigma->0) =     -401.38537395


--------------------------------------------------------------------------------------------------------




----------------------------------------- Iteration    1(   8)  ---------------------------------------


    POTLOK:  cpu time    0.9652: real time    0.9647
    SETDIJ:  cpu time    0.4038: real time    0.4039
     EDDAV:  cpu time   20.5147: real time   20.5353
       DOS:  cpu time    0.0009: real time    0.0009
    CHARGE:  cpu time    4.3576: real time    4.3572
    MIXING:  cpu time    0.0485: real time    0.0485
    --------------------------------------------
      LOOP:  cpu time   26.2913: real time   26.3110

 eigenvalue-minimisations  : 19736
 total energy-change (2. order) :-0.1704546E-02  (-0.2002649E-02)
 number of electron     768.0004419 magnetization       0.0000000
 augmentation part      309.0925260 magnetization       0.0000000

 Broyden mixing:
  rms(total) = 0.23733E-01    rms(broyden)= 0.23723E-01
  rms(prec ) = 0.27092E-01
  weight for this iteration     100.00

 eigenvalues of (default mixing * dielectric matrix)
  average eigenvalue GAMMA=   1.0743
  2.4747  1.1430  1.1430  0.7805  0.7805  0.5994  0.5994

 Free energy of the ion-electron system (eV)
  ---------------------------------------------------
  alpha Z        PSCENC =      5395.69248661
  Ewald energy   TEWEN  =   -103725.60568214
  -Hartree energ DENC   =    -47830.40930048
  -exchange      EXHF   =         0.00000000
  -V(xc)+E(xc)   XCENC  =      5139.76701885
  PAW double counting   =    140795.02680455  -146858.58105388
  entropy T*S    EENTRO =         0.00000000
  eigenvalues    EBANDS =    -15722.89970859
  atomic energy  EATOM  =    162405.62235658
  Solvation  Ediel_sol  =         0.00000000
  ---------------------------------------------------
  free energy    TOTEN  =      -401.38707850 eV

  energy without entropy =     -401.38707850  energy(sigma->0) =     -401.38707850


--------------------------------------------------------------------------------------------------------




----------------------------------------- Iteration    1(   9)  ---------------------------------------


    POTLOK:  cpu time    0.9540: real time    0.9539
    SETDIJ:  cpu time    0.4021: real time    0.4019
     EDDAV:  cpu time   21.0315: real time   21.0476
       DOS:  cpu time    0.0009: real time    0.0009
    CHARGE:  cpu time    4.3623: real time    4.3611
    MIXING:  cpu time    0.0487: real time    0.0487
    --------------------------------------------
      LOOP:  cpu time   26.8001: real time   26.8148

 eigenvalue-minimisations  : 19976
 total energy-change (2. order) :-0.1361309E-03  (-0.3887772E-03)
 number of electron     768.0004420 magnetization      -0.0000000
 augmentation part      309.0979648 magnetization      -0.0000000

 Broyden mixing:
  rms(total) = 0.12379E-01    rms(broyden)= 0.12377E-01
  rms(prec ) = 0.14598E-01
  weight for this iteration     100.00

 eigenvalues of (default mixing * dielectric matrix)
  average eigenvalue GAMMA=   1.0921
  2.2428  1.5134  1.2337  0.9204  0.9204  0.6024  0.6518  0.6518

 Free energy of the ion-electron system (eV)
  ---------------------------------------------------
  alpha Z        PSCENC =      5395.69248661
  Ewald energy   TEWEN  =   -103725.60568214
  -Hartree energ DENC   =    -47827.42124211
  -exchange      EXHF   =         0.00000000
  -V(xc)+E(xc)   XCENC  =      5139.64317088
  PAW double counting   =    140802.99594345  -146868.51544529
  entropy T*S    EENTRO =         0.00000000
  eigenvalues    EBANDS =    -15723.79880261
  atomic energy  EATOM  =    162405.62235658
  Solvation  Ediel_sol  =         0.00000000
  ---------------------------------------------------
  free energy    TOTEN  =      -401.38721463 eV

  energy without entropy =     -401.38721463  energy(sigma->0) =     -401.38721463


--------------------------------------------------------------------------------------------------------




----------------------------------------- Iteration    1(  10)  ---------------------------------------


    POTLOK:  cpu time    0.9514: real time    0.9509
    SETDIJ:  cpu time    0.4019: real time    0.4018
     EDDAV:  cpu time   22.0195: real time   22.0402
       DOS:  cpu time    0.0010: real time    0.0010
    CHARGE:  cpu time    4.3596: real time    4.3584
    MIXING:  cpu time    0.0588: real time    0.0588
    --------------------------------------------
      LOOP:  cpu time   27.7930: real time   27.8117

 eigenvalue-minimisations  : 21528
 total energy-change (2. order) :-0.5159411E-05  (-0.9102140E-04)
 number of electron     768.0004420 magnetization       0.0000000
 augmentation part      309.1091380 magnetization       0.0000000

 Broyden mixing:
  rms(total) = 0.48995E-02    rms(broyden)= 0.48859E-02
  rms(prec ) = 0.54151E-02
  weight for this iteration     100.00

 eigenvalues of (default mixing * dielectric matrix)
  average eigenvalue GAMMA=   1.1870
  2.2681  2.2681  1.2194  1.2194  0.9051  0.9051  0.5983  0.6630  0.6369

 Free energy of the ion-electron system (eV)
  ---------------------------------------------------
  alpha Z        PSCENC =      5395.69248661
  Ewald energy   TEWEN  =   -103725.60568214
  -Hartree energ DENC   =    -47823.34363738
  -exchange      EXHF   =         0.00000000
  -V(xc)+E(xc)   XCENC  =      5139.46973005
  PAW double counting   =    140806.21301070  -146873.73423431
  entropy T*S    EENTRO =         0.00000000
  eigenvalues    EBANDS =    -15725.70124989
  atomic energy  EATOM  =    162405.62235658
  Solvation  Ediel_sol  =         0.00000000
  ---------------------------------------------------
  free energy    TOTEN  =      -401.38721979 eV

  energy without entropy =     -401.38721979  energy(sigma->0) =     -401.38721979


--------------------------------------------------------------------------------------------------------




----------------------------------------- Iteration    1(  11)  ---------------------------------------


    POTLOK:  cpu time    0.9620: real time    0.9615
    SETDIJ:  cpu time    0.4033: real time    0.4032
     EDDAV:  cpu time   21.2782: real time   21.3272
       DOS:  cpu time    0.0009: real time    0.0009
    CHARGE:  cpu time    4.3709: real time    4.3697
    MIXING:  cpu time    0.0567: real time    0.0566
    --------------------------------------------
      LOOP:  cpu time   27.0727: real time   27.1198

 eigenvalue-minimisations  : 20224
 total energy-change (2. order) :-0.2134338E-04  (-0.2573401E-04)
 number of electron     768.0004420 magnetization       0.0000000
 augmentation part      309.1153945 magnetization       0.0000000

 Broyden mixing:
  rms(total) = 0.33822E-02    rms(broyden)= 0.33817E-02
  rms(prec ) = 0.35997E-02
  weight for this iteration     100.00

 eigenvalues of (default mixing * dielectric matrix)
  average eigenvalue GAMMA=   1.1834
  2.4339  2.4339  1.1786  1.1786  0.9347  0.9347  0.8073  0.7203  0.6061  0.6061

 Free energy of the ion-electron system (eV)
  ---------------------------------------------------
  alpha Z        PSCENC =      5395.69248661
  Ewald energy   TEWEN  =   -103725.60568214
  -Hartree energ DENC   =    -47821.83411497
  -exchange      EXHF   =         0.00000000
  -V(xc)+E(xc)   XCENC  =      5139.41289544
  PAW double counting   =    140793.98950455  -146861.82065590
  entropy T*S    EENTRO =         0.00000000
  eigenvalues    EBANDS =    -15726.84403130
  atomic energy  EATOM  =    162405.62235658
  Solvation  Ediel_sol  =         0.00000000
  ---------------------------------------------------
  free energy    TOTEN  =      -401.38724113 eV

  energy without entropy =     -401.38724113  energy(sigma->0) =     -401.38724113


--------------------------------------------------------------------------------------------------------




----------------------------------------- Iteration    1(  12)  ---------------------------------------


    POTLOK:  cpu time    0.9550: real time    0.9546
    SETDIJ:  cpu time    0.4025: real time    0.4023
     EDDAV:  cpu time   18.7092: real time   18.7506
       DOS:  cpu time    0.0009: real time    0.0009
    CHARGE:  cpu time    4.3557: real time    4.3545
    MIXING:  cpu time    0.0689: real time    0.0689
    --------------------------------------------
      LOOP:  cpu time   24.4930: real time   24.5325

 eigenvalue-minimisations  : 17232
 total energy-change (2. order) : 0.1626933E-05  (-0.6813766E-05)
 number of electron     768.0004420 magnetization      -0.0000000
 augmentation part      309.1114855 magnetization      -0.0000000

 Broyden mixing:
  rms(total) = 0.12328E-02    rms(broyden)= 0.12321E-02
  rms(prec ) = 0.12688E-02
  weight for this iteration     100.00

 eigenvalues of (default mixing * dielectric matrix)
  average eigenvalue GAMMA=   1.2128
  2.5582  2.0124  2.0124  1.1123  1.1123  0.9549  0.9549  0.7097  0.7097  0.6021
  0.6021

 Free energy of the ion-electron system (eV)
  ---------------------------------------------------
  alpha Z        PSCENC =      5395.69248661
  Ewald energy   TEWEN  =   -103725.60568214
  -Hartree energ DENC   =    -47822.27116421
  -exchange      EXHF   =         0.00000000
  -V(xc)+E(xc)   XCENC  =      5139.43435863
  PAW double counting   =    140789.72570912  -146857.50010335
  entropy T*S    EENTRO =         0.00000000
  eigenvalues    EBANDS =    -15726.48520074
  atomic energy  EATOM  =    162405.62235658
  Solvation  Ediel_sol  =         0.00000000
  ---------------------------------------------------
  free energy    TOTEN  =      -401.38723951 eV

  energy without entropy =     -401.38723951  energy(sigma->0) =     -401.38723951


--------------------------------------------------------------------------------------------------------




----------------------------------------- Iteration    1(  13)  ---------------------------------------


    POTLOK:  cpu time    0.9616: real time    0.9612
    SETDIJ:  cpu time    0.4031: real time    0.4029
     EDDAV:  cpu time   13.1711: real time   13.1984
       DOS:  cpu time    0.0009: real time    0.0009
    CHARGE:  cpu time    4.3405: real time    4.3401
    MIXING:  cpu time    0.0663: real time    0.0663
    --------------------------------------------
      LOOP:  cpu time   18.9441: real time   18.9705

 eigenvalue-minimisations  :  9952
 total energy-change (2. order) : 0.7466006E-05  (-0.1716404E-05)
 number of electron     768.0004420 magnetization       0.0000000
 augmentation part      309.1111763 magnetization       0.0000000

 Broyden mixing:
  rms(total) = 0.75270E-03    rms(broyden)= 0.75066E-03
  rms(prec ) = 0.84120E-03
  weight for this iteration     100.00

 eigenvalues of (default mixing * dielectric matrix)
  average eigenvalue GAMMA=   1.2514
  2.6867  2.3053  2.3053  1.0858  1.0858  1.0047  1.0047  0.9801  0.6986  0.6060
  0.6060  0.6480

 Free energy of the ion-electron system (eV)
  ---------------------------------------------------
  alpha Z        PSCENC =      5395.69248661
  Ewald energy   TEWEN  =   -103725.60568214
  -Hartree energ DENC   =    -47822.48425237
  -exchange      EXHF   =         0.00000000
  -V(xc)+E(xc)   XCENC  =      5139.44337283
  PAW double counting   =    140787.06982300  -146854.73474416
  entropy T*S    EENTRO =        -0.00000000
  eigenvalues    EBANDS =    -15726.39059239
  atomic energy  EATOM  =    162405.62235658
  Solvation  Ediel_sol  =         0.00000000
  ---------------------------------------------------
  free energy    TOTEN  =      -401.38723204 eV

  energy without entropy =     -401.38723204  energy(sigma->0) =     -401.38723204


--------------------------------------------------------------------------------------------------------




----------------------------------------- Iteration    1(  14)  ---------------------------------------


    POTLOK:  cpu time    0.9513: real time    0.9509
    SETDIJ:  cpu time    0.4029: real time    0.4029
     EDDAV:  cpu time   12.6351: real time   12.6892
       DOS:  cpu time    0.0011: real time    0.0011
    CHARGE:  cpu time    4.3658: real time    4.3652
    MIXING:  cpu time    0.0730: real time    0.0729
    --------------------------------------------
      LOOP:  cpu time   18.4298: real time   18.4828

 eigenvalue-minimisations  :  9184
 total energy-change (2. order) : 0.2318935E-05  (-0.6443625E-06)
 number of electron     768.0004420 magnetization      -0.0000000
 augmentation part      309.1120861 magnetization      -0.0000000

 Broyden mixing:
  rms(total) = 0.15416E-03    rms(broyden)= 0.15377E-03
  rms(prec ) = 0.18177E-03
  weight for this iteration     100.00

 eigenvalues of (default mixing * dielectric matrix)
  average eigenvalue GAMMA=   1.2406
  2.8449  2.2852  2.2852  1.2971  1.1295  1.1295  0.9210  0.9210  0.7387  0.7387
  0.6035  0.6035  0.6305

 Free energy of the ion-electron system (eV)
  ---------------------------------------------------
  alpha Z        PSCENC =      5395.69248661
  Ewald energy   TEWEN  =   -103725.60568214
  -Hartree energ DENC   =    -47822.34433384
  -exchange      EXHF   =         0.00000000
  -V(xc)+E(xc)   XCENC  =      5139.43795460
  PAW double counting   =    140787.00579574  -146854.70664375
  entropy T*S    EENTRO =         0.00000000
  eigenvalues    EBANDS =    -15726.48916352
  atomic energy  EATOM  =    162405.62235658
  Solvation  Ediel_sol  =         0.00000000
  ---------------------------------------------------
  free energy    TOTEN  =      -401.38722972 eV

  energy without entropy =     -401.38722972  energy(sigma->0) =     -401.38722972


--------------------------------------------------------------------------------------------------------




----------------------------------------- Iteration    1(  15)  ---------------------------------------


    POTLOK:  cpu time    0.9517: real time    0.9514
    SETDIJ:  cpu time    0.4026: real time    0.4026
     EDDAV:  cpu time   12.1386: real time   12.1534
       DOS:  cpu time    0.0011: real time    0.0011
    --------------------------------------------
      LOOP:  cpu time   13.4945: real time   13.5090

 eigenvalue-minimisations  :  8752
 total energy-change (2. order) : 0.4351605E-06  (-0.2564663E-06)
 number of electron     768.0004420 magnetization      -0.0000000
 augmentation part      309.1120861 magnetization      -0.0000000

 Free energy of the ion-electron system (eV)
  ---------------------------------------------------
  alpha Z        PSCENC =      5395.69248661
  Ewald energy   TEWEN  =   -103725.60568214
  -Hartree energ DENC   =    -47822.30729112
  -exchange      EXHF   =         0.00000000
  -V(xc)+E(xc)   XCENC  =      5139.43681339
  PAW double counting   =    140786.96882238  -146854.69288226
  entropy T*S    EENTRO =         0.00000000
  eigenvalues    EBANDS =    -15726.50185272
  atomic energy  EATOM  =    162405.62235658
  Solvation  Ediel_sol  =         0.00000000
  ---------------------------------------------------
  free energy    TOTEN  =      -401.38722929 eV

  energy without entropy =     -401.38722929  energy(sigma->0) =     -401.38722929


--------------------------------------------------------------------------------------------------------




 average (electrostatic) potential at core
  the test charge radii are     0.8614  0.6768
  (the norm of the test charge is              1.0000)
       1 -79.9011       2 -79.9011       3 -79.9011       4 -79.9011       5 -79.9011
       6 -79.9011       7 -79.9011       8 -79.9011       9 -79.9011      10 -79.9011
      11 -79.9011      12 -79.9011      13 -79.9011      14 -79.9011      15 -79.9011
      16 -79.9011      17 -79.9011      18 -79.9011      19 -79.9011      20 -79.9011
      21 -79.9011      22 -79.9011      23 -79.9011      24 -79.9011      25 -79.9011
      26 -79.9011      27 -79.9011      28 -79.9011      29 -79.9011      30 -79.9011
      31 -79.9011      32 -79.9011      33-113.9425      34-113.9425      35-113.9425
      36-113.9425      37-113.9425      38-113.9425      39-113.9425      40-113.9425
      41-113.9425      42-113.9425      43-113.9425      44-113.9425      45-113.9425
      46-113.9425      47-113.9425      48-113.9425      49-113.9425      50-113.9425
      51-113.9425      52-113.9425      53-113.9425      54-113.9425      55-113.9425
      56-113.9425      57-113.9425      58-113.9425      59-113.9425      60-113.9425
      61-113.9425      62-113.9425      63-113.9425      64-113.9425
 
 
 
 E-fermi :   7.3452     XC(G=0): -12.9988     alpha+bet :-12.5760


 spin component 1

 k-point     1 :       0.0000    0.0000    0.0000
  band No.  band energies     occupation 
      1     -96.6762      1.00000
      2     -96.6752      1.00000
      3     -96.6752      1.00000
      4     -96.6752      1.00000
      5     -96.6751      1.00000
      6     -96.6751      1.00000
      7     -96.6751      1.00000
      8     -96.6748      1.00000
      9     -96.6748      1.00000
     10     -96.6748      1.00000
     11     -96.6748      1.00000
     12     -96.6748      1.00000
     13     -96.6748      1.00000
     14     -96.6747      1.00000
     15     -96.6747      1.00000
     16     -96.6747      1.00000
     17     -95.0136      1.00000
     18     -95.0124      1.00000
     19     -95.0124      1.00000
     20     -95.0124      1.00000
     21     -95.0124      1.00000
     22     -95.0124      1.00000
     23     -95.0124      1.00000
     24     -95.0120      1.00000
     25     -95.0120      1.00000
     26     -95.0120      1.00000
     27     -95.0120      1.00000
     28     -95.0120      1.00000
     29     -95.0120      1.00000
     30     -95.0120      1.00000
     31     -95.0120      1.00000
     32     -95.0120      1.00000
     33     -57.0905      1.00000
     34     -57.0885      1.00000
     35     -57.0885      1.00000
     36     -57.0885      1.00000
     37     -57.0885      1.00000
     38     -57.0885      1.00000
     39     -57.0885      1.00000
     40     -57.0873      1.00000
     41     -57.0873      1.00000
     42     -57.0873      1.00000
     43     -57.0872      1.00000
     44     -57.0872      1.00000
     45     -57.0872      1.00000
     46     -57.0872      1.00000
     47     -57.0872      1.00000
     48     -57.0872      1.00000
     49     -57.0817      1.00000
     50     -57.0817      1.00000
     51     -57.0817      1.00000
     52     -57.0775      1.00000
     53     -57.0775      1.00000
     54     -57.0775      1.00000
     55     -57.0775      1.00000
     56     -57.0775      1.00000
     57     -57.0775      1.00000
     58     -57.0702      1.00000
     59     -57.0702      1.00000
     60     -57.0702      1.00000
     61     -57.0702      1.00000
     62     -57.0702      1.00000
     63     -57.0702      1.00000
     64     -57.0691      1.00000
     65     -57.0691      1.00000
     66     -57.0691      1.00000
     67     -57.0691      1.00000
     68     -57.0691      1.00000
     69     -57.0691      1.00000
     70     -57.0649      1.00000
     71     -57.0649      1.00000
     72     -57.0649      1.00000
     73     -57.0614      1.00000
     74     -57.0614      1.00000
     75     -57.0614      1.00000
     76     -57.0614      1.00000
     77     -57.0614      1.00000
     78     -57.0614      1.00000
     79     -57.0591      1.00000
     80     -57.0591      1.00000
     81     -55.4623      1.00000
     82     -55.4622      1.00000
     83     -55.4622      1.00000
     84     -55.4577      1.00000
     85     -55.4577      1.00000
     86     -55.4577      1.00000
     87     -55.4577      1.00000
     88     -55.4577      1.00000
     89     -55.4577      1.00000
     90     -55.4570      1.00000
     91     -55.4552      1.00000
     92     -55.4552      1.00000
     93     -55.4552      1.00000
     94     -55.4552      1.00000
     95     -55.4552      1.00000
     96     -55.4552      1.00000
     97     -55.4537      1.00000
     98     -55.4537      1.00000
     99     -55.4537      1.00000
    100     -55.4537      1.00000
    101     -55.4537      1.00000
    102     -55.4537      1.00000
    103     -55.4537      1.00000
    104     -55.4537      1.00000
    105     -55.4537      1.00000
    106     -55.4496      1.00000
    107     -55.4496      1.00000
    108     -55.4496      1.00000
    109     -55.4496      1.00000
    110     -55.4496      1.00000
    111     -55.4496      1.00000
    112     -55.4484      1.00000
    113     -55.4484      1.00000
    114     -55.4484      1.00000
    115     -55.4484      1.00000
    116     -55.4484      1.00000
    117     -55.4484      1.00000
    118     -55.4438      1.00000
    119     -55.4438      1.00000
    120     -55.4437      1.00000
    121     -55.4401      1.00000
    122     -55.4401      1.00000
    123     -55.4401      1.00000
    124     -55.4401      1.00000
    125     -55.4401      1.00000
    126     -55.4401      1.00000
    127     -55.4374      1.00000
    128     -55.4374      1.00000
    129     -12.7239      1.00000
    130     -11.9681      1.00000
    131     -11.9681      1.00000
    132     -11.9681      1.00000
    133     -11.9681      1.00000
    134     -11.9681      1.00000
    135     -11.9681      1.00000
    136     -11.4843      1.00000
    137     -11.4843      1.00000
    138     -11.4843      1.00000
    139     -11.4843      1.00000
    140     -11.4843      1.00000
    141     -11.4843      1.00000
    142     -11.4841      1.00000
    143     -11.4841      1.00000
    144     -11.4841      1.00000
    145     -11.4841      1.00000
    146     -11.4841      1.00000
    147     -11.4841      1.00000
    148     -11.3598      1.00000
    149     -11.3593      1.00000
    150     -11.3593      1.00000
    151     -11.3593      1.00000
    152     -11.2951      1.00000
    153     -11.2951      1.00000
    154     -11.2950      1.00000
    155     -11.1889      1.00000
    156     -11.1889      1.00000
    157     -11.1889      1.00000
    158     -11.1889      1.00000
    159     -11.1889      1.00000
    160     -11.1889      1.00000
    161      -0.5517      1.00000
    162      -0.5517      1.00000
    163      -0.5517      1.00000
    164      -0.5474      1.00000
    165       0.4555      1.00000
    166       0.4555      1.00000
    167       0.4555      1.00000
    168       0.4555      1.00000
    169       0.4555      1.00000
    170       0.4555      1.00000
    171       0.4571      1.00000
    172       0.4571      1.00000
    173       0.4571      1.00000
    174       0.4571      1.00000
    175       0.4571      1.00000
    176       0.4571      1.00000
    177       0.7119      1.00000
    178       0.7119      1.00000
    179       0.7119      1.00000
    180       1.1981      1.00000
    181       1.1981      1.00000
    182       1.1981      1.00000
    183       1.1981      1.00000
    184       1.1981      1.00000
    185       1.1981      1.00000
    186       1.4991      1.00000
    187       1.4991      1.00000
    188       1.4991      1.00000
    189       1.4991      1.00000
    190       1.4991      1.00000
    191       1.4991      1.00000
    192       1.5046      1.00000
    193       1.5046      1.00000
    194       1.5046      1.00000
    195       1.5046      1.00000
    196       1.5046      1.00000
    197       1.5046      1.00000
    198       1.8594      1.00000
    199       1.8594      1.00000
    200       1.8594      1.00000
    201       1.8594      1.00000
    202       1.8594      1.00000
    203       1.8594      1.00000
    204       2.0626      1.00000
    205       2.0626      1.00000
    206       2.0663      1.00000
    207       2.0663      1.00000
    208       2.0663      1.00000
    209       2.0855      1.00000
    210       2.0855      1.00000
    211       2.0855      1.00000
    212       2.1388      1.00000
    213       2.1388      1.00000
    214       2.1388      1.00000
    215       2.1388      1.00000
    216       2.1388      1.00000
    217       2.1388      1.00000
    218       2.1434      1.00000
    219       2.1434      1.00000
    220       2.1434      1.00000
    221       2.1434      1.00000
    222       2.1434      1.00000
    223       2.1434      1.00000
    224       2.1907      1.00000
    225       2.1907      1.00000
    226       2.1907      1.00000
    227       2.1907      1.00000
    228       2.1907      1.00000
    229       2.1907      1.00000
    230       2.2099      1.00000
    231       2.2099      1.00000
    232       2.2099      1.00000
    233       2.2099      1.00000
    234       2.2099      1.00000
    235       2.2099      1.00000
    236       3.3177      1.00000
    237       3.3177      1.00000
    238       3.3177      1.00000
    239       3.3216      1.00000
    240       3.3216      1.00000
    241       3.3216      1.00000
    242       3.5539      1.00000
    243       3.5539      1.00000
    244       3.5539      1.00000
    245       3.5539      1.00000
    246       3.5539      1.00000
    247       3.5539      1.00000
    248       3.5627      1.00000
    249       3.5627      1.00000
    250       3.5627      1.00000
    251       3.5627      1.00000
    252       3.5627      1.00000
    253       3.5627      1.00000
    254       4.4199      1.00000
    255       4.4199      1.00000
    256       4.4199      1.00000
    257       4.6107      1.00000
    258       4.6107      1.00000
    259       4.6177      1.00000
    260       4.8483      1.00000
    261       4.8483      1.00000
    262       4.8483      1.00000
    263       4.8483      1.00000
    264       4.8483      1.00000
    265       4.8483      1.00000
    266       5.2061      1.00000
    267       5.2061      1.00000
    268       5.3005      1.00000
    269       5.5251      1.00000
    270       5.5251      1.00000
    271       5.6446      1.00000
    272       5.6446      1.00000
    273       5.6446      1.00000
    274       5.6446      1.00000
    275       5.6446      1.00000
    276       5.6446      1.00000
    277       5.6650      1.00000
    278       5.6650      1.00000
    279       5.6650      1.00000
    280       5.7079      1.00000
    281       5.7079      1.00000
    282       5.7079      1.00000
    283       5.7079      1.00000
    284       5.7079      1.00000
    285       5.7079      1.00000
    286       5.7473      1.00000
    287       5.7473      1.00000
    288       5.7473      1.00000
    289       5.7474      1.00000
    290       5.7474      1.00000
    291       5.7474      1.00000
    292       5.7693      1.00000
    293       5.7693      1.00000
    294       5.7693      1.00000
    295       5.7693      1.00000
    296       5.7693      1.00000
    297       5.7693      1.00000
    298       5.7776      1.00000
    299       5.7776      1.00000
    300       5.7776      1.00000
    301       5.7776      1.00000
    302       5.7776      1.00000
    303       5.7776      1.00000
    304       5.9194      1.00000
    305       5.9194      1.00000
    306       5.9194      1.00000
    307       5.9229      1.00000
    308       5.9229      1.00000
    309       5.9229      1.00000
    310       5.9229      1.00000
    311       5.9229      1.00000
    312       5.9229      1.00000
    313       6.0765      1.00000
    314       6.0765      1.00000
    315       6.0765      1.00000
    316       6.1397      1.00000
    317       6.1397      1.00000
[...]
   -.358E-13 0.110E-10 -.141E-10   -.144E-12 0.302E-13 -.117E-13   0.164E-21 -.736E-22 -.562E-22   -.119E-11 0.247E-12 -.895E-12
   0.154E-11 -.359E-10 0.136E-10   -.105E-12 0.284E-13 -.917E-13   -.304E-21 -.152E-21 0.199E-21   0.594E-12 0.283E-12 0.208E-11
   0.597E-12 0.432E-12 0.139E-12   -.107E-12 -.114E-12 0.451E-13   0.000E+00 -.662E-22 -.397E-22   0.101E-11 0.304E-12 -.774E-12
   0.973E-12 0.739E-11 -.212E-11   -.353E-13 -.114E-12 -.349E-13   -.438E-22 0.205E-21 0.278E-21   0.571E-12 0.190E-12 0.169E-11
   0.173E-11 0.414E-12 -.541E-10   0.111E-13 -.923E-13 -.142E-13   0.926E-22 0.222E-22 -.827E-22   0.477E-12 0.329E-12 0.687E-12
   0.499E-12 0.117E-11 0.869E-12   -.711E-14 -.355E-13 -.149E-12   -.106E-21 0.364E-22 0.165E-21   0.113E-11 -.858E-13 -.155E-11
   0.105E-11 -.906E-11 0.940E-11   0.497E-13 -.118E-12 -.185E-12   0.662E-22 0.112E-21 -.223E-21   0.516E-12 0.287E-12 0.249E-12
   -.184E-12 -.734E-11 0.119E-10   0.711E-13 0.711E-14 -.149E-12   -.126E-21 0.132E-22 0.112E-21   -.104E-11 0.203E-12 -.164E-11
   0.675E-12 -.129E-12 0.110E-11   0.185E-12 -.182E-12 -.113E-12   0.165E-21 0.629E-22 -.463E-22   0.104E-11 0.169E-12 0.194E-11
   0.943E-12 0.273E-12 -.117E-10   0.171E-12 -.639E-13 -.225E-12   -.860E-22 0.819E-22 0.232E-21   0.706E-12 0.343E-12 -.956E-12
   0.952E-13 0.469E-12 -.595E-10   0.114E-12 -.108E-12 -.170E-12   0.662E-22 0.298E-22 -.960E-22   -.117E-11 0.159E-12 0.178E-11
   0.163E-11 0.106E-11 -.193E-10   0.129E-12 -.977E-13 -.253E-12   -.546E-22 0.103E-21 0.200E-21   0.529E-12 0.818E-13 -.549E-12
   0.115E-11 0.449E-12 0.161E-10   0.298E-12 -.853E-13 -.227E-12   -.728E-22 -.695E-22 -.180E-21   0.434E-12 0.291E-12 -.194E-11
   -.799E-13 0.153E-11 0.265E-11   0.291E-12 -.853E-13 -.341E-12   0.496E-22 0.126E-21 0.199E-21   -.108E-11 -.583E-13 0.379E-12
   0.174E-11 -.966E-11 -.816E-11   0.352E-12 -.223E-12 -.284E-12   0.189E-21 0.827E-22 -.447E-22   0.435E-12 0.312E-12 -.152E-11
   0.530E-12 0.162E-11 0.114E-11   0.355E-12 -.107E-12 -.256E-12   -.860E-22 0.159E-21 0.663E-22   0.106E-11 0.238E-12 0.632E-12
   0.674E-13 -.171E-11 0.954E-12   -.764E-13 0.142E-13 0.853E-13   0.149E-22 -.331E-23 -.182E-22   -.115E-13 -.137E-12 -.514E-12
   0.495E-13 0.576E-11 0.488E-11   -.764E-13 0.252E-13 -.506E-13   -.199E-22 0.124E-22 -.153E-22   -.558E-12 -.102E-12 0.404E-12
   0.407E-12 -.800E-11 0.117E-10   -.195E-13 0.666E-13 0.293E-13   -.424E-23 -.331E-22 0.265E-22   0.180E-12 -.106E-12 -.539E-12
   0.210E-12 0.350E-12 0.306E-12   -.639E-13 -.568E-13 -.497E-13   0.480E-22 0.215E-22 -.312E-22   0.398E-12 0.358E-13 0.450E-12
   0.597E-13 0.549E-11 0.416E-11   -.400E-13 0.533E-14 0.746E-13   0.232E-22 -.265E-22 -.190E-22   -.570E-12 -.329E-13 -.290E-12
   0.434E-12 0.329E-12 0.226E-11   -.383E-13 0.151E-13 -.637E-13   -.662E-23 -.827E-23 -.393E-23   0.142E-12 0.185E-13 0.780E-12
   0.249E-12 0.805E-13 0.123E-12   -.338E-13 -.711E-13 0.160E-13   -.227E-23 -.993E-23 -.178E-22   0.366E-12 -.548E-13 -.257E-12
   0.141E-12 0.893E-12 -.104E-10   -.266E-13 -.584E-13 -.628E-13   -.132E-22 0.000E+00 0.993E-23   -.112E-12 -.146E-15 0.799E-12
   0.497E-12 0.160E-10 -.832E-11   -.663E-14 0.115E-13 0.870E-13   -.422E-22 0.662E-23 0.000E+00   0.904E-13 -.696E-13 0.464E-12
   0.295E-12 0.957E-13 0.174E-12   -.444E-14 0.299E-13 -.862E-13   0.347E-22 -.414E-22 -.347E-22   0.323E-12 0.571E-13 -.566E-12
   0.123E-12 -.827E-12 0.215E-11   0.569E-13 -.568E-13 0.284E-13   -.132E-22 0.993E-23 -.211E-22   -.648E-13 -.372E-14 0.462E-12
   0.128E-12 0.324E-12 0.190E-10   0.711E-13 -.453E-13 -.171E-12   0.360E-22 -.165E-22 -.215E-22   -.621E-12 -.641E-14 -.552E-12
   0.248E-12 0.352E-12 0.487E-12   0.213E-13 0.355E-13 0.763E-13   0.121E-22 0.496E-23 -.310E-22   0.376E-12 -.514E-13 0.835E-12
   0.544E-13 0.331E-12 -.949E-11   0.782E-13 0.356E-13 -.945E-13   0.993E-23 -.827E-23 -.331E-22   -.356E-13 -.273E-13 -.286E-12
   0.458E-13 0.182E-10 -.118E-10   0.853E-13 0.711E-13 0.133E-13   0.786E-23 0.951E-23 -.298E-22   -.497E-12 -.155E-12 0.751E-12
   0.449E-12 0.503E-11 -.109E-11   0.427E-13 0.785E-13 -.186E-12   0.248E-22 0.910E-23 -.153E-22   0.163E-12 -.234E-13 -.328E-12
   0.411E-12 0.163E-11 -.454E-11   0.140E-12 0.142E-13 0.266E-14   -.165E-23 0.827E-23 -.182E-22   0.167E-12 -.736E-13 0.426E-12
   0.212E-12 0.372E-12 0.181E-12   0.128E-12 0.142E-13 0.711E-13   -.165E-23 -.354E-22 -.199E-22   0.415E-12 -.207E-13 -.565E-12
   0.373E-13 0.400E-11 0.235E-11   0.710E-13 0.568E-13 -.568E-13   -.467E-22 -.168E-22 0.335E-22   0.822E-14 -.122E-12 0.409E-12
   0.209E-13 0.491E-11 0.823E-11   0.933E-13 0.441E-13 0.782E-13   -.323E-22 -.381E-22 0.000E+00   -.509E-12 -.396E-13 -.529E-12
   0.294E-12 0.993E-13 0.501E-12   0.206E-12 0.355E-13 -.142E-13   -.203E-22 -.149E-22 0.199E-22   0.320E-12 -.510E-13 0.760E-12
   0.914E-13 0.101E-11 0.485E-12   0.199E-12 0.502E-13 0.646E-13   -.744E-23 0.290E-23 -.993E-23   -.614E-13 -.310E-13 -.256E-12
   0.651E-13 0.260E-11 -.119E-10   0.149E-12 0.853E-13 -.728E-13   -.265E-22 -.165E-22 -.132E-22   -.585E-12 0.424E-14 0.817E-12
   0.464E-12 0.354E-12 -.156E-11   0.185E-12 0.711E-13 0.654E-13   -.157E-22 -.232E-22 0.331E-23   0.138E-12 -.781E-14 -.303E-12
   0.127E-12 0.418E-11 0.254E-11   0.192E-12 -.711E-14 -.355E-13   0.232E-22 0.141E-22 -.430E-22   -.800E-13 0.194E-13 -.525E-12
   0.128E-12 0.273E-12 0.314E-11   0.199E-12 0.360E-14 0.178E-12   -.215E-22 0.165E-22 -.662E-23   -.606E-12 0.524E-13 0.459E-12
   0.466E-12 0.482E-11 -.122E-11   0.245E-12 0.391E-13 -.941E-13   0.215E-22 0.112E-22 -.118E-22   0.106E-12 -.364E-13 -.556E-12
   0.267E-12 -.145E-12 -.240E-12   0.275E-12 0.261E-13 0.790E-13   -.159E-22 -.165E-22 0.132E-22   0.364E-12 -.698E-14 0.451E-12
   0.895E-13 0.741E-11 0.811E-11   0.258E-12 0.213E-13 -.381E-13   -.248E-22 -.538E-23 0.165E-22   -.547E-12 -.119E-12 -.219E-12
   0.399E-12 -.951E-12 0.130E-10   0.248E-12 0.287E-13 0.156E-12   0.215E-22 0.662E-23 -.496E-23   0.210E-12 -.527E-13 0.806E-12
   0.253E-12 -.202E-12 -.110E-12   0.181E-12 0.568E-13 -.991E-13   -.579E-23 -.265E-22 -.165E-22   0.367E-12 -.562E-13 -.298E-12
   0.833E-13 0.355E-12 -.299E-12   0.192E-12 0.507E-13 0.639E-13   0.114E-22 0.414E-23 -.438E-22   -.427E-13 -.564E-13 0.822E-12
 -----------------------------------------------------------------------------------------------
   0.327E-10 0.108E-09 -.602E-10   0.306E-12 0.572E-14 0.125E-13   0.586E-21 0.152E-20 0.803E-21   0.715E-11 0.521E-11 0.244E-11
 
 
 POSITION                                       TOTAL-FORCE (eV/Angst)
 -----------------------------------------------------------------------------------
      0.00000      0.00000      0.00000        -0.000000     -0.000000      0.000000
      2.09453      2.09453      4.18906         0.000000     -0.000000     -0.000000
      4.18906      4.18906      0.00000         0.000000      0.000000     -0.000000
      6.28359      6.28359      4.18906        -0.000000     -0.000000      0.000000
      2.09453      4.18906      2.09453         0.000000     -0.000000      0.000000
      4.18906      6.28359      6.28359        -0.000000     -0.000000      0.000000
      6.28359      0.00000      2.09453         0.000000     -0.000000     -0.000000
      0.00000      2.09453      6.28359         0.000000     -0.000000     -0.000000
      4.18906      0.00000      4.18906        -0.000000      0.000000     -0.000000
      6.28359      2.09453      0.00000         0.000000      0.000000     -0.000000
      0.00000      4.18906      4.18906         0.000000      0.000000      0.000000
      2.09453      6.28359      0.00000        -0.000000      0.000000      0.000000
      6.28359      4.18906      6.28359        -0.000000     -0.000000      0.000000
      0.00000      6.28359      2.09453         0.000000      0.000000      0.000000
      2.09453      0.00000      6.28359         0.000000      0.000000     -0.000000
      4.18906      2.09453      2.09453         0.000000      0.000000      0.000000
      4.18906      4.18906      4.18906         0.000000     -0.000000     -0.000000
      6.28359      6.28359      0.00000        -0.000000      0.000000      0.000000
      0.00000      0.00000      4.18906        -0.000000     -0.000000      0.000000
      2.09453      2.09453      0.00000         0.000000     -0.000000     -0.000000
      6.28359      0.00000      6.28359         0.000000      0.000000     -0.000000
      0.00000      2.09453      2.09453         0.000000      0.000000     -0.000000
      2.09453      4.18906      6.28359        -0.000000      0.000000     -0.000000
      4.18906      6.28359      2.09453        -0.000000     -0.000000      0.000000
      0.00000      4.18906      0.00000         0.000000      0.000000     -0.000000
      2.09453      6.28359      4.18906        -0.000000      0.000000      0.000000
      4.18906      0.00000      0.00000         0.000000     -0.000000     -0.000000
      6.28359      2.09453      4.18906        -0.000000      0.000000     -0.000000
      2.09453      0.00000      2.09453        -0.000000     -0.000000      0.000000
      4.18906      2.09453      6.28359        -0.000000      0.000000     -0.000000
      6.28359      4.18906      2.09453         0.000000      0.000000      0.000000
      0.00000      6.28359      6.28359        -0.000000      0.000000     -0.000000
      2.09453      2.09453      2.09453        -0.000000     -0.000000     -0.000000
      4.18906      4.18906      6.28359        -0.000000     -0.000000      0.000000
      6.28359      6.28359      2.09453        -0.000000     -0.000000     -0.000000
      0.00000      0.00000      6.28359        -0.000000      0.000000      0.000000
      4.18906      6.28359      4.18906         0.000000      0.000000     -0.000000
      6.28359      0.00000      0.00000        -0.000000      0.000000      0.000000
      0.00000      2.09453      4.18906         0.000000     -0.000000      0.000000
      2.09453      4.18906      0.00000        -0.000000      0.000000      0.000000
      6.28359      2.09453      6.28359         0.000000     -0.000000      0.000000
      0.00000      4.18906      2.09453         0.000000     -0.000000     -0.000000
      2.09453      6.28359      6.28359         0.000000     -0.000000      0.000000
      4.18906      0.00000      2.09453         0.000000      0.000000     -0.000000
      0.00000      6.28359      0.00000         0.000000     -0.000000     -0.000000
      2.09453      0.00000      4.18906         0.000000      0.000000      0.000000
      4.18906      2.09453      0.00000        -0.000000     -0.000000      0.000000
      6.28359      4.18906      4.18906         0.000000     -0.000000     -0.000000
      6.28359      6.28359      6.28359        -0.000000      0.000000      0.000000
      0.00000      0.00000      2.09453        -0.000000      0.000000     -0.000000
      2.09453      2.09453      6.28359        -0.000000      0.000000      0.000000
      4.18906      4.18906      2.09453        -0.000000      0.000000     -0.000000
      0.00000      2.09453      0.00000        -0.000000     -0.000000     -0.000000
      2.09453      4.18906      4.18906         0.000000      0.000000      0.000000
      4.18906      6.28359      0.00000         0.000000      0.000000      0.000000
      6.28359      0.00000      4.18906         0.000000     -0.000000     -0.000000
      2.09453      6.28359      2.09453        -0.000000      0.000000     -0.000000
      4.18906      0.00000      6.28359         0.000000     -0.000000      0.000000
      6.28359      2.09453      2.09453         0.000000     -0.000000     -0.000000
      0.00000      4.18906      6.28359         0.000000     -0.000000      0.000000
      4.18906      2.09453      4.18906         0.000000     -0.000000     -0.000000
      6.28359      4.18906      0.00000         0.000000     -0.000000      0.000000
      0.00000      6.28359      4.18906         0.000000      0.000000     -0.000000
      2.09453      0.00000      0.00000         0.000000      0.000000      0.000000
 -----------------------------------------------------------------------------------
    total drift:                                0.000000      0.000000     -0.000000


--------------------------------------------------------------------------------------------------------



  FREE ENERGIE OF THE ION-ELECTRON SYSTEM (eV)
  ---------------------------------------------------
  free  energy   TOTEN  =      -401.38722929 eV

  energy  without entropy=     -401.38722929  energy(sigma->0) =     -401.38722929
 


--------------------------------------------------------------------------------------------------------


    POTLOK:  cpu time    1.3544: real time    1.3538


--------------------------------------------------------------------------------------------------------


 writing wavefunctions
     LOOP+:  cpu time  397.8110: real time  398.1816
    4ORBIT:  cpu time    0.0000: real time    0.0000
 


 total charge     
 
# of ion       s       p       d       f       tot
--------------------------------------------------
    1        2.149   6.212   7.812   0.009  16.182
    2        2.149   6.212   7.812   0.009  16.182
    3        2.149   6.212   7.812   0.009  16.182
    4        2.149   6.212   7.812   0.009  16.182
    5        2.149   6.212   7.812   0.009  16.182
    6        2.149   6.212   7.812   0.009  16.182
    7        2.149   6.212   7.812   0.009  16.182
    8        2.149   6.212   7.812   0.009  16.182
    9        2.149   6.212   7.812   0.009  16.182
   10        2.149   6.212   7.812   0.009  16.182
   11        2.149   6.212   7.812   0.009  16.182
   12        2.149   6.212   7.812   0.009  16.182
   13        2.149   6.212   7.812   0.009  16.182
   14        2.149   6.212   7.812   0.009  16.182
   15        2.149   6.212   7.812   0.009  16.182
   16        2.149   6.212   7.812   0.009  16.182
   17        2.149   6.212   7.812   0.009  16.182
   18        2.149   6.212   7.812   0.009  16.182
   19        2.149   6.212   7.812   0.009  16.182
   20        2.149   6.212   7.812   0.009  16.182
   21        2.149   6.212   7.812   0.009  16.182
   22        2.149   6.212   7.812   0.009  16.182
   23        2.149   6.212   7.812   0.009  16.182
   24        2.149   6.212   7.812   0.009  16.182
   25        2.149   6.212   7.812   0.009  16.182
   26        2.149   6.212   7.812   0.009  16.182
   27        2.149   6.212   7.812   0.009  16.182
   28        2.149   6.212   7.812   0.009  16.182
   29        2.149   6.212   7.812   0.009  16.182
   30        2.149   6.212   7.812   0.009  16.182
   31        2.149   6.212   7.812   0.009  16.182
   32        2.149   6.212   7.812   0.009  16.182
   33        1.627   3.541   0.018   0.000   5.186
   34        1.627   3.541   0.018   0.000   5.187
   35        1.627   3.541   0.018   0.000   5.186
   36        1.627   3.541   0.018   0.000   5.187
   37        1.627   3.541   0.018   0.000   5.187
   38        1.627   3.541   0.018   0.000   5.187
   39        1.627   3.541   0.018   0.000   5.187
   40        1.627   3.541   0.018   0.000   5.187
   41        1.627   3.541   0.018   0.000   5.186
   42        1.627   3.541   0.018   0.000   5.187
   43        1.627   3.541   0.018   0.000   5.186
   44        1.627   3.541   0.018   0.000   5.187
   45        1.627   3.541   0.018   0.000   5.187
   46        1.627   3.541   0.018   0.000   5.187
   47        1.627   3.541   0.018   0.000   5.187
   48        1.627   3.541   0.018   0.000   5.187
   49        1.627   3.541   0.018   0.000   5.186
   50        1.627   3.541   0.018   0.000   5.187
   51        1.627   3.541   0.018   0.000   5.186
   52        1.627   3.541   0.018   0.000   5.187
   53        1.627   3.541   0.018   0.000   5.187
   54        1.627   3.541   0.018   0.000   5.187
   55        1.627   3.541   0.018   0.000   5.187
   56        1.627   3.541   0.018   0.000   5.187
   57        1.627   3.541   0.018   0.000   5.186
   58        1.627   3.541   0.018   0.000   5.187
   59        1.627   3.541   0.018   0.000   5.186
   60        1.627   3.541   0.018   0.000   5.187
   61        1.627   3.541   0.018   0.000   5.187
   62        1.627   3.541   0.018   0.000   5.187
   63        1.627   3.541   0.018   0.000   5.187
   64        1.627   3.541   0.018   0.000   5.187
--------------------------------------------------
tot        120.828 312.110 250.566   0.289 683.793

 


 magnetization (x)
 
# of ion       s       p       d       f       tot
--------------------------------------------------
    1       -0.003  -0.007   1.327   0.000   1.318
    2       -0.003  -0.007   1.327   0.000   1.318
    3       -0.003  -0.007   1.327   0.000   1.318
    4       -0.003  -0.007   1.327   0.000   1.318
    5       -0.003  -0.007   1.327   0.000   1.318
    6       -0.003  -0.007   1.327   0.000   1.318
    7       -0.003  -0.007   1.327   0.000   1.318
    8       -0.003  -0.007   1.327   0.000   1.318
    9       -0.003  -0.007   1.327   0.000   1.318
   10       -0.003  -0.007   1.327   0.000   1.318
   11       -0.003  -0.007   1.327   0.000   1.318
   12       -0.003  -0.007   1.327   0.000   1.318
   13       -0.003  -0.007   1.327   0.000   1.318
   14       -0.003  -0.007   1.327   0.000   1.318
   15       -0.003  -0.007   1.327   0.000   1.318
   16       -0.003  -0.007   1.327   0.000   1.318
   17        0.003   0.007  -1.327  -0.000  -1.318
   18        0.003   0.007  -1.327  -0.000  -1.318
   19        0.003   0.007  -1.327  -0.000  -1.318
   20        0.003   0.007  -1.327  -0.000  -1.318
   21        0.003   0.007  -1.327  -0.000  -1.318
   22        0.003   0.007  -1.327  -0.000  -1.318
   23        0.003   0.007  -1.327  -0.000  -1.318
   24        0.003   0.007  -1.327  -0.000  -1.318
   25        0.003   0.007  -1.327  -0.000  -1.318
   26        0.003   0.007  -1.327  -0.000  -1.318
   27        0.003   0.007  -1.327  -0.000  -1.318
   28        0.003   0.007  -1.327  -0.000  -1.318
   29        0.003   0.007  -1.327  -0.000  -1.318
   30        0.003   0.007  -1.327  -0.000  -1.318
   31        0.003   0.007  -1.327  -0.000  -1.318
   32        0.003   0.007  -1.327  -0.000  -1.318
   33        0.000   0.000  -0.000   0.000   0.000
   34        0.000   0.000  -0.000   0.000   0.000
   35        0.000   0.000  -0.000   0.000   0.000
   36        0.000   0.000  -0.000   0.000   0.000
   37        0.000  -0.000  -0.000   0.000  -0.000
   38        0.000   0.000  -0.000   0.000   0.000
   39        0.000   0.000  -0.000   0.000   0.000
   40        0.000   0.000  -0.000   0.000   0.000
   41        0.000   0.000  -0.000   0.000   0.000
   42        0.000   0.000  -0.000   0.000   0.000
   43        0.000   0.000  -0.000   0.000   0.000
   44        0.000   0.000  -0.000   0.000   0.000
   45        0.000   0.000   0.000   0.000   0.000
   46        0.000   0.000  -0.000   0.000   0.000
   47        0.000   0.000  -0.000   0.000   0.000
   48        0.000   0.000  -0.000   0.000   0.000
   49        0.000   0.000  -0.000   0.000   0.000
   50        0.000  -0.000  -0.000   0.000  -0.000
   51        0.000   0.000  -0.000   0.000   0.000
   52        0.000   0.000  -0.000   0.000   0.000
   53        0.000   0.000  -0.000   0.000   0.000
   54        0.000   0.000  -0.000   0.000   0.000
   55        0.000   0.000  -0.000   0.000   0.000
   56        0.000   0.000  -0.000   0.000   0.000
   57        0.000   0.000  -0.000   0.000   0.000
   58        0.000   0.000  -0.000   0.000   0.000
   59        0.000   0.000  -0.000   0.000   0.000
   60        0.000   0.000  -0.000   0.000   0.000
   61        0.000   0.000  -0.000   0.000   0.000
   62        0.000   0.000  -0.000   0.000   0.000
   63        0.000   0.000  -0.000   0.000   0.000
   64        0.000   0.000  -0.000   0.000   0.000
--------------------------------------------------
tot          0.000   0.000   0.000  -0.000   0.000

 
