 vasp.5.4.4.18Apr17-6-g9f103f2a35 (build Oct 10 2019 09:51:33) complex          
  
 executed on   carbon_intel19_gpu date 2020.09.25  16:54:47
 running on    1 total cores
 distrk:  each k-point on    1 cores,    1 groups
 distr:  one band on NCORES_PER_BAND=   1 cores,    1 groups


--------------------------------------------------------------------------------------------------------


 INCAR:
 POTCAR:    PAW_PBE Ni_sv_GW 05Dec2013            
 POTCAR:    PAW_PBE O_GW 19Mar2012                
 POTCAR:    PAW_PBE Ni_sv_GW 05Dec2013            
   VRHFIN =Ni:                                                                  
   LEXCH  = PE                                                                  
   EATOM  =  4642.8712 eV,  341.2414 Ry                                         
                                                                                
   TITEL  = PAW_PBE Ni_sv_GW 05Dec2013                                          
   LULTRA =        F    use ultrasoft PP ?                                      
   IUNSCR =        1    unscreen: 0-lin 1-nonlin 2-no                           
   RPACOR =    1.400    partial core radius                                     
   POMASS =   58.690; ZVAL   =   18.000    mass and valenz                      
   RCORE  =    1.900    outmost cutoff radius                                   
   RWIGS  =    2.100; RWIGS  =    1.111    wigner-seitz radius (au A)           
   ENMAX  =  389.645; ENMIN  =  292.234 eV                                      
   RCLOC  =    1.301    cutoff for local pot                                    
   LCOR   =        T    correct aug charges                                     
   LPAW   =        T    paw PP                                                  
   EAUG   = 1036.387                                                            
   RMAX   =    1.945    core radius for proj-oper                               
   RAUG   =    1.300    factor for augmentation sphere                          
   RDEP   =    1.972    radius for radial grids                                 
   RDEPT  =    1.600    core radius for aug-charge                              
                                                                                
   Atomic configuration                                                         
    8 entries                                                                   
     n  l   j            E        occ.                                          
     1  0  0.50     -8203.3308   2.0000                                         
     2  0  0.50      -972.7019   2.0000                                         
     2  1  1.50      -835.6236   6.0000                                         
     3  0  0.50      -102.6944   2.0000                                         
     3  1  1.50       -63.2363   6.0000                                         
     3  1  1.50       -68.0291   0.0000                                         
     3  2  2.50        -1.9692  10.0000                                         
     4  3  2.50        -1.3606   0.0000                                         
   Description                                                                  
     l       E           TYP  RCUT    TYP  RCUT                                 
     0   -102.6944069     23  1.400                                             
     0      1.3605826     23  1.700                                             
     0    204.0873900     23  1.400                                             
     1    -63.2363356     23  1.650                                             
     1    -68.0291300     23  1.650                                             
     1    136.0582600     23  1.650                                             
     2     -1.9691936     23  1.900                                             
     2     27.2116520     23  1.900                                             
     2    136.0582600     23  1.900                                             
     3     27.2116520     23  1.900                                             
     3    136.0582600     23  1.900                                             
  local pseudopotential read in
  partial core-charges read in
  partial kinetic energy density read in
  kinetic energy density of atom read in
  atomic valenz-charges read in
  non local Contribution for L=           0  read in
    real space projection operators read in
  non local Contribution for L=           0  read in
    real space projection operators read in
  non local Contribution for L=           0  read in
    real space projection operators read in
  non local Contribution for L=           1  read in
    real space projection operators read in
  non local Contribution for L=           1  read in
    real space projection operators read in
  non local Contribution for L=           1  read in
    real space projection operators read in
  non local Contribution for L=           2  read in
    real space projection operators read in
  non local Contribution for L=           2  read in
    real space projection operators read in
  non local Contribution for L=           2  read in
    real space projection operators read in
  non local Contribution for L=           3  read in
    real space projection operators read in
  non local Contribution for L=           3  read in
    real space projection operators read in
    PAW grid and wavefunctions read in
 
   number of l-projection  operators is LMAX  =          11
   number of lm-projection operators is LMMAX =          41
 
 POTCAR:    PAW_PBE O_GW 19Mar2012                
   VRHFIN =O: s2p4                                                              
   LEXCH  = PE                                                                  
   EATOM  =   432.3788 eV,   31.7789 Ry                                         
                                                                                
   TITEL  = PAW_PBE O_GW 19Mar2012                                              
   LULTRA =        F    use ultrasoft PP ?                                      
   IUNSCR =        1    unscreen: 0-lin 1-nonlin 2-no                           
   RPACOR =    0.800    partial core radius                                     
   POMASS =   16.000; ZVAL   =    6.000    mass and valenz                      
   RCORE  =    1.600    outmost cutoff radius                                   
   RWIGS  =    1.600; RWIGS  =    0.847    wigner-seitz radius (au A)           
   ENMAX  =  434.431; ENMIN  =  325.824 eV                                      
   ICORE  =        3    local potential                                         
   LCOR   =        T    correct aug charges                                     
   LPAW   =        T    paw PP                                                  
   EAUG   = 1139.609                                                            
   DEXC   =    0.000                                                            
   RMAX   =    1.629    core radius for proj-oper                               
   RAUG   =    1.300    factor for augmentation sphere                          
   RDEP   =    1.652    radius for radial grids                                 
   RDEPT  =    1.200    core radius for aug-charge                              
                                                                                
   Atomic configuration                                                         
    5 entries                                                                   
     n  l   j            E        occ.                                          
     1  0  0.50      -514.6923   2.0000                                         
     2  0  0.50       -23.9615   2.0000                                         
     2  1  0.50        -9.0305   4.0000                                         
     3  2  1.50        -9.5241   0.0000                                         
     4  3  2.50        -9.5241   0.0000                                         
   Description                                                                  
     l       E           TYP  RCUT    TYP  RCUT                                 
     0    -23.9615316     23  1.150                                             
     0    -25.3221142     23  1.150                                             
     0    244.9048680     23  1.300                                             
     1     -9.0304908     23  1.500                                             
     1     -6.9258396     23  1.500                                             
     1    122.4524340     23  1.500                                             
     2     13.6058260     23  1.500                                             
     2    190.4815640     23  1.600                                             
     3     54.4233040     23  1.400                                             
  local pseudopotential read in
  partial core-charges read in
  partial kinetic energy density read in
  kinetic energy density of atom read in
  atomic valenz-charges read in
  non local Contribution for L=           0  read in
    real space projection operators read in
  non local Contribution for L=           0  read in
    real space projection operators read in
  non local Contribution for L=           0  read in
    real space projection operators read in
  non local Contribution for L=           1  read in
    real space projection operators read in
  non local Contribution for L=           1  read in
    real space projection operators read in
  non local Contribution for L=           1  read in
    real space projection operators read in
  non local Contribution for L=           2  read in
    real space projection operators read in
  non local Contribution for L=           2  read in
    real space projection operators read in
    PAW grid and wavefunctions read in
 
   number of l-projection  operators is LMAX  =           8
   number of lm-projection operators is LMMAX =          22
 
 Optimization of the real space projectors (new method)

 maximal supplied QI-value         = 19.84
 optimisation between [QCUT,QGAM] = [ 12.50, 25.00] = [ 43.76,175.03] Ry 
 Optimized for a Real-space Cutoff    1.31 Angstroem

   l    n(q)    QCUT    max X(q) W(low)/X(q) W(high)/X(q)  e(spline) 
   0     10    12.501     2.300    0.65E-05    0.25E-06    0.79E-07
   0     10    12.501     7.576    0.25E-04    0.52E-05    0.18E-06
   0     10    12.501     1.388    0.34E-04    0.75E-05    0.48E-06
   1      9    12.501    11.002    0.11E-03    0.24E-03    0.54E-06
   1      9    12.501    14.537    0.90E-04    0.23E-03    0.70E-06
   1      9    12.501     3.893    0.34E-04    0.51E-04    0.68E-06
   2      9    12.501    14.869    0.32E-03    0.35E-03    0.49E-06
   2      9    12.501     7.291    0.12E-03    0.20E-03    0.30E-06
   2      9    12.501     6.907    0.35E-03    0.37E-03    0.52E-06
   3      8    12.501    10.598    0.33E-03    0.15E-03    0.57E-06
   3      8    12.501     2.997    0.28E-03    0.16E-03    0.51E-06
 Optimization of the real space projectors (new method)

 maximal supplied QI-value         = 23.62
 optimisation between [QCUT,QGAM] = [ 12.52, 25.04] = [ 43.89,175.56] Ry 
 Optimized for a Real-space Cutoff    1.35 Angstroem

   l    n(q)    QCUT    max X(q) W(low)/X(q) W(high)/X(q)  e(spline) 
   0     10    12.519   116.464    0.13E-03    0.15E-03    0.46E-05
   0     10    12.519   116.329    0.13E-03    0.15E-03    0.44E-05
   0     10    12.519     0.942    0.35E-04    0.90E-04    0.23E-05
   1     10    12.519   133.003    0.28E-03    0.77E-04    0.26E-05
   1     10    12.519   116.443    0.28E-03    0.76E-04    0.26E-05
   1     10    12.519     2.481    0.45E-03    0.95E-04    0.45E-05
   2      9    12.519     2.237    0.21E-04    0.33E-04    0.21E-06
   2      9    12.519     2.497    0.16E-03    0.12E-03    0.32E-06
  PAW_PBE Ni_sv_GW 05Dec2013            :
 energy of atom  1       EATOM=-4642.8712
 kinetic energy error for atom=    0.0555 (will be added to EATOM!!)
  PAW_PBE O_GW 19Mar2012                :
 energy of atom  2       EATOM= -432.3788
 kinetic energy error for atom=    0.0188 (will be added to EATOM!!)
 
 
 POSCAR: NiO                                     
  positions in direct lattice
  No initial velocities read in
 exchange correlation table for  LEXCH =        8
   RHO(1)=    0.500       N(1)  =     2000
   RHO(2)=  100.500       N(2)  =     4000
 


--------------------------------------------------------------------------------------------------------


 ion  position               nearest neighbor table
   1  0.000  0.000  0.000-  41 2.09  42 2.09  49 2.09  51 2.09  57 2.09  61 2.09
   2  0.000  0.000  0.500-  41 2.09  42 2.09  50 2.09  52 2.09  58 2.09  62 2.09
   3  0.000  0.500  0.000-  43 2.09  44 2.09  49 2.09  51 2.09  59 2.09  63 2.09
   4  0.000  0.500  0.500-  43 2.09  44 2.09  50 2.09  52 2.09  60 2.09  64 2.09
   5  0.500  0.000  0.000-  45 2.09  46 2.09  53 2.09  55 2.09  57 2.09  61 2.09
   6  0.500  0.000  0.500-  45 2.09  46 2.09  54 2.09  56 2.09  58 2.09  62 2.09
   7  0.500  0.500  0.000-  47 2.09  48 2.09  53 2.09  55 2.09  59 2.09  63 2.09
   8  0.500  0.500  0.500-  47 2.09  48 2.09  54 2.09  56 2.09  60 2.09  64 2.09
   9  0.250  0.250  0.000-  33 2.09  34 2.09  49 2.09  53 2.09  57 2.09  59 2.09
  10  0.250  0.250  0.500-  33 2.09  34 2.09  50 2.09  54 2.09  58 2.09  60 2.09
  11  0.250  0.750  0.000-  35 2.09  36 2.09  51 2.09  55 2.09  57 2.09  59 2.09
  12  0.250  0.750  0.500-  35 2.09  36 2.09  52 2.09  56 2.09  58 2.09  60 2.09
  13  0.750  0.250  0.000-  37 2.09  38 2.09  49 2.09  53 2.09  61 2.09  63 2.09
  14  0.750  0.250  0.500-  37 2.09  38 2.09  50 2.09  54 2.09  62 2.09  64 2.09
  15  0.750  0.750  0.000-  39 2.09  40 2.09  51 2.09  55 2.09  61 2.09  63 2.09
  16  0.750  0.750  0.500-  39 2.09  40 2.09  52 2.09  56 2.09  62 2.09  64 2.09
  17  0.250  0.000  0.250-  33 2.09  35 2.09  41 2.09  45 2.09  57 2.09  58 2.09
  18  0.250  0.000  0.750-  34 2.09  36 2.09  42 2.09  46 2.09  57 2.09  58 2.09
  19  0.250  0.500  0.250-  33 2.09  35 2.09  43 2.09  47 2.09  59 2.09  60 2.09
  20  0.250  0.500  0.750-  34 2.09  36 2.09  44 2.09  48 2.09  59 2.09  60 2.09
  21  0.750  0.000  0.250-  37 2.09  39 2.09  41 2.09  45 2.09  61 2.09  62 2.09
  22  0.750  0.000  0.750-  38 2.09  40 2.09  42 2.09  46 2.09  61 2.09  62 2.09
  23  0.750  0.500  0.250-  37 2.09  39 2.09  43 2.09  47 2.09  63 2.09  64 2.09
  24  0.750  0.500  0.750-  38 2.09  40 2.09  44 2.09  48 2.09  63 2.09  64 2.09
  25  0.000  0.250  0.250-  33 2.09  37 2.09  41 2.09  43 2.09  49 2.09  50 2.09
  26  0.000  0.250  0.750-  34 2.09  38 2.09  42 2.09  44 2.09  49 2.09  50 2.09
  27  0.000  0.750  0.250-  35 2.09  39 2.09  41 2.09  43 2.09  51 2.09  52 2.09
  28  0.000  0.750  0.750-  36 2.09  40 2.09  42 2.09  44 2.09  51 2.09  52 2.09
  29  0.500  0.250  0.250-  33 2.09  37 2.09  45 2.09  47 2.09  53 2.09  54 2.09
  30  0.500  0.250  0.750-  34 2.09  38 2.09  46 2.09  48 2.09  53 2.09  54 2.09
  31  0.500  0.750  0.250-  35 2.09  39 2.09  45 2.09  47 2.09  55 2.09  56 2.09
  32  0.500  0.750  0.750-  36 2.09  40 2.09  46 2.09  48 2.09  55 2.09  56 2.09
  33  0.250  0.250  0.250-   9 2.09  10 2.09  17 2.09  19 2.09  25 2.09  29 2.09
  34  0.250  0.250  0.750-   9 2.09  10 2.09  18 2.09  20 2.09  26 2.09  30 2.09
  35  0.250  0.750  0.250-  11 2.09  12 2.09  17 2.09  19 2.09  27 2.09  31 2.09
  36  0.250  0.750  0.750-  11 2.09  12 2.09  18 2.09  20 2.09  28 2.09  32 2.09
  37  0.750  0.250  0.250-  13 2.09  14 2.09  21 2.09  23 2.09  25 2.09  29 2.09
  38  0.750  0.250  0.750-  13 2.09  14 2.09  22 2.09  24 2.09  26 2.09  30 2.09
  39  0.750  0.750  0.250-  15 2.09  16 2.09  21 2.09  23 2.09  27 2.09  31 2.09
  40  0.750  0.750  0.750-  15 2.09  16 2.09  22 2.09  24 2.09  28 2.09  32 2.09
  41  0.000  0.000  0.250-   1 2.09   2 2.09  17 2.09  21 2.09  25 2.09  27 2.09
  42  0.000  0.000  0.750-   1 2.09   2 2.09  18 2.09  22 2.09  26 2.09  28 2.09
  43  0.000  0.500  0.250-   3 2.09   4 2.09  19 2.09  23 2.09  25 2.09  27 2.09
  44  0.000  0.500  0.750-   3 2.09   4 2.09  20 2.09  24 2.09  26 2.09  28 2.09
  45  0.500  0.000  0.250-   5 2.09   6 2.09  17 2.09  21 2.09  29 2.09  31 2.09
  46  0.500  0.000  0.750-   5 2.09   6 2.09  18 2.09  22 2.09  30 2.09  32 2.09
  47  0.500  0.500  0.250-   7 2.09   8 2.09  19 2.09  23 2.09  29 2.09  31 2.09
  48  0.500  0.500  0.750-   7 2.09   8 2.09  20 2.09  24 2.09  30 2.09  32 2.09
  49  0.000  0.250  0.000-   1 2.09   3 2.09   9 2.09  13 2.09  25 2.09  26 2.09
  50  0.000  0.250  0.500-   2 2.09   4 2.09  10 2.09  14 2.09  25 2.09  26 2.09
  51  0.000  0.750  0.000-   1 2.09   3 2.09  11 2.09  15 2.09  27 2.09  28 2.09
  52  0.000  0.750  0.500-   2 2.09   4 2.09  12 2.09  16 2.09  27 2.09  28 2.09
  53  0.500  0.250  0.000-   5 2.09   7 2.09   9 2.09  13 2.09  29 2.09  30 2.09
  54  0.500  0.250  0.500-   6 2.09   8 2.09  10 2.09  14 2.09  29 2.09  30 2.09
  55  0.500  0.750  0.000-   5 2.09   7 2.09  11 2.09  15 2.09  31 2.09  32 2.09
  56  0.500  0.750  0.500-   6 2.09   8 2.09  12 2.09  16 2.09  31 2.09  32 2.09
  57  0.250  0.000  0.000-   1 2.09   5 2.09   9 2.09  11 2.09  17 2.09  18 2.09
  58  0.250  0.000  0.500-   2 2.09   6 2.09  10 2.09  12 2.09  17 2.09  18 2.09
  59  0.250  0.500  0.000-   3 2.09   7 2.09   9 2.09  11 2.09  19 2.09  20 2.09
  60  0.250  0.500  0.500-   4 2.09   8 2.09  10 2.09  12 2.09  19 2.09  20 2.09
  61  0.750  0.000  0.000-   1 2.09   5 2.09  13 2.09  15 2.09  21 2.09  22 2.09
  62  0.750  0.000  0.500-   2 2.09   6 2.09  14 2.09  16 2.09  21 2.09  22 2.09
  63  0.750  0.500  0.000-   3 2.09   7 2.09  13 2.09  15 2.09  23 2.09  24 2.09
  64  0.750  0.500  0.500-   4 2.09   8 2.09  14 2.09  16 2.09  23 2.09  24 2.09
 
  LATTYP: Found a simple cubic cell.
 ALAT       =     8.3476610000
  
  Lattice vectors:
  
 A1 = (   8.3476610000,   0.0000000000,   0.0000000000)
 A2 = (   0.0000000000,   8.3476610000,   0.0000000000)
 A3 = (   0.0000000000,   0.0000000000,   8.3476610000)


Analysis of symmetry for initial positions (statically):
=====================================================================
 Subroutine PRICEL returns following result:
 
  LATTYP: Found a face centered cubic cell.
 ALAT       =     4.1738305000
  
  Lattice vectors:
  
 A1 = (   2.0869152500,   2.0869152500,   0.0000000000)
 A2 = (   2.0869152500,   0.0000000000,  -2.0869152500)
 A3 = (   0.0000000000,   2.0869152500,  -2.0869152500)
 
  32 primitive cells build up your supercell.
 

 Routine SETGRP: Setting up the symmetry group for a 
 simple cubic supercell.


 Subroutine GETGRP returns: Found 48 space group operations
 (whereof 48 operations were pure point group operations)
 out of a pool of 48 trial point group operations.


The static configuration has the point symmetry O_h .


Analysis of symmetry for dynamics (positions and initial velocities):
=====================================================================
 Subroutine PRICEL returns following result:
 
  LATTYP: Found a face centered cubic cell.
 ALAT       =     4.1738305000
  
  Lattice vectors:
  
 A1 = (   2.0869152500,   2.0869152500,   0.0000000000)
 A2 = (   2.0869152500,   0.0000000000,  -2.0869152500)
 A3 = (   0.0000000000,   2.0869152500,  -2.0869152500)
 
  32 primitive cells build up your supercell.
 

 Routine SETGRP: Setting up the symmetry group for a 
 simple cubic supercell.


 Subroutine GETGRP returns: Found 48 space group operations
 (whereof 48 operations were pure point group operations)
 out of a pool of 48 trial point group operations.


The dynamic configuration has the point symmetry O_h .


Analysis of structural, dynamic, and magnetic symmetry:
=====================================================================
 Subroutine PRICEL returns following result:
 
  LATTYP: Found a face centered cubic cell.
 ALAT       =     4.1738305000
  
  Lattice vectors:
  
 A1 = (   2.0869152500,   2.0869152500,   0.0000000000)
 A2 = (   2.0869152500,   0.0000000000,  -2.0869152500)
 A3 = (   0.0000000000,   2.0869152500,  -2.0869152500)
 
  32 primitive cells build up your supercell.
 

 Routine SETGRP: Setting up the symmetry group for a 
 simple cubic supercell.


 Subroutine GETGRP returns: Found 16 space group operations
 (whereof 16 operations were pure point group operations)
 out of a pool of 48 trial point group operations.


The magnetic configuration has the point symmetry D_4h.


 Subroutine INISYM returns: Found 16 space group operations
 (whereof 16 operations are pure point group operations),
 and found    32 'primitive' translations

 
 
 KPOINTS: k-points                                

Automatic generation of k-mesh.
Space group operators:
 irot       det(A)        alpha          n_x          n_y          n_z        tau_x        tau_y        tau_z
    1     1.000000     0.000000     1.000000     0.000000     0.000000     0.000000     0.000000     0.000000
    2    -1.000000     0.000000     1.000000     0.000000     0.000000     0.000000     0.000000     0.000000
    3     1.000000    90.000000     0.000000     0.000000    -1.000000     0.000000     0.000000     0.000000
    4    -1.000000    90.000000     0.000000     0.000000    -1.000000     0.000000     0.000000     0.000000
    5     1.000000   180.000000     0.000000     0.000000     1.000000     0.000000     0.000000     0.000000
    6    -1.000000   180.000000     0.000000     0.000000     1.000000     0.000000     0.000000     0.000000
    7     1.000000    90.000000     0.000000     0.000000     1.000000     0.000000     0.000000     0.000000
    8    -1.000000    90.000000     0.000000     0.000000     1.000000     0.000000     0.000000     0.000000
    9     1.000000   180.000000     1.000000     0.000000     0.000000     0.000000     0.000000     0.000000
   10    -1.000000   180.000000     1.000000     0.000000     0.000000     0.000000     0.000000     0.000000
   11     1.000000   180.000000     0.707107     0.707107     0.000000     0.000000     0.000000     0.000000
   12    -1.000000   180.000000     0.707107     0.707107     0.000000     0.000000     0.000000     0.000000
   13     1.000000   180.000000     0.000000     1.000000     0.000000     0.000000     0.000000     0.000000
   14    -1.000000   180.000000     0.000000     1.000000     0.000000     0.000000     0.000000     0.000000
   15     1.000000   180.000000     0.707107    -0.707107     0.000000     0.000000     0.000000     0.000000
   16    -1.000000   180.000000     0.707107    -0.707107     0.000000     0.000000     0.000000     0.000000
 
 Subroutine IBZKPT returns following result:
 ===========================================
 
 Found      6 irreducible k-points:
 
 Following reciprocal coordinates:
            Coordinates               Weight
  0.000000  0.000000  0.000000      1.000000
  0.333333  0.000000  0.000000      4.000000
  0.333333  0.333333  0.000000      4.000000
  0.000000  0.000000  0.333333      2.000000
  0.333333  0.000000  0.333333      8.000000
  0.333333  0.333333  0.333333      8.000000
 
 Following cartesian coordinates:
            Coordinates               Weight
  0.000000  0.000000  0.000000      1.000000
  0.333333  0.000000  0.000000      4.000000
  0.333333  0.333333  0.000000      4.000000
  0.000000  0.000000  0.333333      2.000000
  0.333333  0.000000  0.333333      8.000000
  0.333333  0.333333  0.333333      8.000000
 


--------------------------------------------------------------------------------------------------------




 Dimension of arrays:
   k-points           NKPTS =      6   k-points in BZ     NKDIM =      6   number of bands    NBANDS=    460
   number of dos      NEDOS =    301   number of ions     NIONS =     64
   non local maximal  LDIM  =     11   non local SUM 2l+1 LMDIM =     41
   total plane-waves  NPLWV = 125000
   max r-space proj   IRMAX =   2244   max aug-charges    IRDMAX=   4943
   dimension x,y,z NGX =    50 NGY =   50 NGZ =   50
   dimension x,y,z NGXF=   100 NGYF=  100 NGZF=  100
   support grid    NGXF=   100 NGYF=  100 NGZF=  100
   ions per type =              32  32
   NGX,Y,Z   is equivalent  to a cutoff of   9.96,  9.96,  9.96 a.u.
   NGXF,Y,Z  is equivalent  to a cutoff of  19.92, 19.92, 19.92 a.u.

 SYSTEM =  NiO                                     
 POSCAR =  NiO                                     

 Startparameter for this run:
   NWRITE =      2    write-flag & timer
   PREC   = normal    normal or accurate (medium, high low for compatibility)
   ISTART =      1    job   : 0-new  1-cont  2-samecut
   ICHARG =      1    charge: 1-file 2-atom 10-const
   ISPIN  =      2    spin polarized calculation?
   LNONCOLLINEAR =      F non collinear calculations
   LSORBIT =      F    spin-orbit coupling
   INIWAV =      1    electr: 0-lowe 1-rand  2-diag
   LASPH  =      F    aspherical Exc in radial PAW
   METAGGA=      F    non-selfconsistent MetaGGA calc.

 Electronic Relaxation 1
   ENCUT  =  600.0 eV  44.10 Ry    6.64 a.u.  16.67 16.67 16.67*2*pi/ulx,y,z
   ENINI  =  600.0     initial cutoff
   ENAUG  = 1200.0 eV  augmentation charge cutoff
   NELM   =    100;   NELMIN=  2; NELMDL=  0     # of ELM steps 
   EDIFF  = 0.1E-05   stopping-criterion for ELM
   LREAL  =      T    real-space projection
   NLSPLINE    = F    spline interpolate recip. space projectors
   LCOMPAT=      F    compatible to vasp.4.4
   GGA_COMPAT  = T    GGA compatible to vasp.4.4-vasp.4.6
   LMAXPAW     = -100 max onsite density
   LMAXMIX     =    4 max onsite mixed and CHGCAR
   VOSKOWN=      0    Vosko Wilk Nusair interpolation
   ROPT   =   -0.00050  -0.00050
 Ionic relaxation
   EDIFFG = -.1E-03   stopping-criterion for IOM
   NSW    =      0    number of steps for IOM
   NBLOCK =      1;   KBLOCK =      1    inner block; outer block 
   IBRION =     -1    ionic relax: 0-MD 1-quasi-New 2-CG
   NFREE  =      1    steps in history (QN), initial steepest desc. (CG)
   ISIF   =      2    stress and relaxation
   IWAVPR =     10    prediction:  0-non 1-charg 2-wave 3-comb
   ISYM   =      2    0-nonsym 1-usesym 2-fastsym
   LCORR  =      T    Harris-Foulkes like correction to forces

   POTIM  = 0.2000    time-step for ionic-motion
   TEIN   =    0.0    initial temperature
   TEBEG  =    0.0;   TEEND  =   0.0 temperature during run
   SMASS  =  -3.00    Nose mass-parameter (am)
   estimated Nose-frequenzy (Omega)   =  0.10E-29 period in steps =****** mass=  -0.159E-26a.u.
   SCALEE = 1.0000    scale energy and forces
   NPACO  =    256;   APACO  = 16.0  distance and # of slots for P.C.
   PSTRESS=    0.0 pullay stress

  Mass of Ions in am
   POMASS =  58.69 16.00
  Ionic Valenz
   ZVAL   =  18.00  6.00
  Atomic Wigner-Seitz radii
   RWIGS  =  -1.00 -1.00
  virtual crystal weights 
   VCA    =   1.00  1.00
   NELECT =     768.0000    total number of electrons
   NUPDOWN=      -1.0000    fix difference up-down

 DOS related values:
   EMIN   =  10.00;   EMAX   =-10.00  energy-range for DOS
   EFERMI =   0.00
   ISMEAR =     0;   SIGMA  =   0.00  broadening in eV -4-tet -1-fermi 0-gaus

 Electronic relaxation 2 (details)
   IALGO  =     38    algorithm
   LDIAG  =      T    sub-space diagonalisation (order eigenvalues)
   LSUBROT=      F    optimize rotation matrix (better conditioning)
   TURBO    =      0    0=normal 1=particle mesh
   IRESTART =      0    0=no restart 2=restart with 2 vectors
   NREBOOT  =      0    no. of reboots
   NMIN     =      0    reboot dimension
   EREF     =   0.00    reference energy to select bands
   IMIX   =      4    mixing-type and parameters
     AMIX     =   0.40;   BMIX     =  1.00
     AMIX_MAG =   1.60;   BMIX_MAG =  1.00
     AMIN     =   0.10
     WC   =   100.;   INIMIX=   1;  MIXPRE=   1;  MAXMIX= -45

 Intra band minimization:
   WEIMIN = 0.0000     energy-eigenvalue tresh-hold
   EBREAK =  0.54E-09  absolut break condition
   DEPER  =   0.30     relativ break condition  

   TIME   =   0.40     timestep for ELM

  volume/ion in A,a.u.               =       9.09        61.34
  Fermi-wavevector in a.u.,A,eV,Ry     =   1.795962  3.393876 43.885304  3.225479
  Thomas-Fermi vector in A             =   2.857607
 
 Write flags
   LWAVE        =      T    write WAVECAR
   LDOWNSAMPLE  =      F    k-point downsampling of WAVECAR
   LCHARG       =      T    write CHGCAR
   LVTOT        =      F    write LOCPOT, total local potential
   LVHAR        =      F    write LOCPOT, Hartree potential only
   LELF         =      F    write electronic localiz. function (ELF)
   LORBIT       =     11    0 simple, 1 ext, 2 COOP (PROOUT), +10 PAW based schemes


 Dipole corrections
   LMONO  =      F    monopole corrections only (constant potential shift)
   LDIPOL =      F    correct potential (dipole corrections)
   IDIPOL =      0    1-x, 2-y, 3-z, 4-all directions 
   EPSILON=  1.0000000 bulk dielectric constant

 Exchange correlation treatment:
   GGA     =    --    GGA type
   LEXCH   =     8    internal setting for exchange type
   VOSKOWN=      0    Vosko Wilk Nusair interpolation
   LHFCALC =     F    Hartree Fock is set to
   LHFONE  =     F    Hartree Fock one center treatment
   AEXX    =    0.0000 exact exchange contribution

 Linear response parameters
   LEPSILON=     F    determine dielectric tensor
   LRPA    =     F    only Hartree local field effects (RPA)
   LNABLA  =     F    use nabla operator in PAW spheres
   LVEL    =     F    velocity operator in full k-point grid
   LINTERFAST=   F  fast interpolation
   KINTER  =     0    interpolate to denser k-point grid
   CSHIFT  =0.1000    complex shift for real part using Kramers Kronig
   OMEGAMAX=  -1.0    maximum frequency
   DEG_THRESHOLD= 0.2000000E-02 threshold for treating states as degnerate
   RTIME   =   -0.100 relaxation time in fs
  (WPLASMAI=    0.000 imaginary part of plasma frequency in eV, 0.658/RTIME)
   DFIELD  = 0.0000000 0.0000000 0.0000000 field for delta impulse in time
 
 Orbital magnetization related:
   ORBITALMAG=     F  switch on orbital magnetization
   LCHIMAG   =     F  perturbation theory with respect to B field
   DQ        =  0.001000  dq finite difference perturbation B field
   LLRAUG    =     F  two centre corrections for induced B field



--------------------------------------------------------------------------------------------------------


 Static calculation
 charge density and potential will be updated during run
 spin polarized calculation
 Variant of blocked Davidson
 Davidson routine will perform the subspace rotation
 perform sub-space diagonalisation
    after iterative eigenvector-optimisation
 modified Broyden-mixing scheme, WC =      100.0
 initial mixing is a Kerker type mixing with AMIX =  0.4000 and BMIX =      1.0000
 Hartree-type preconditioning will be used
 using additional bands           76
 real space projection scheme for non local part
 use partial core corrections
 calculate Harris-corrections to forces 
   (improved forces if not selfconsistent)
 use gradient corrections 
 use of overlap-Matrix (Vanderbilt PP)
 Gauss-broadening in eV      SIGMA  =   0.00


--------------------------------------------------------------------------------------------------------


  energy-cutoff  :      600.00
  volume of cell :      581.69
      direct lattice vectors                 reciprocal lattice vectors
     8.347661000  0.000000000  0.000000000     0.119794036  0.000000000  0.000000000
     0.000000000  8.347661000  0.000000000     0.000000000  0.119794036  0.000000000
     0.000000000  0.000000000  8.347661000     0.000000000  0.000000000  0.119794036

  length of vectors
     8.347661000  8.347661000  8.347661000     0.119794036  0.119794036  0.119794036


 
 old parameters found on file WAVECAR:
  energy-cutoff  :      600.00
  volume of cell :      576.56
      direct lattice vectors                 reciprocal lattice vectors
     8.323012000  0.000000000  0.000000000     0.120148812  0.000000000  0.000000000
     0.000000000  8.323012000  0.000000000     0.000000000  0.120148812  0.000000000
     0.000000000  0.000000000  8.323012000     0.000000000  0.000000000  0.120148812

  length of vectors

 
 k-points in units of 2pi/SCALE and weight: k-points                                
   0.00000000  0.00000000  0.00000000       0.037
   0.33333333  0.00000000  0.00000000       0.148
   0.33333333  0.33333333  0.00000000       0.148
   0.00000000  0.00000000  0.33333333       0.074
   0.33333333  0.00000000  0.33333333       0.296
   0.33333333  0.33333333  0.33333333       0.296
 
 k-points in reciprocal lattice and weights: k-points                                
   0.00000000  0.00000000  0.00000000       0.037
   0.33333333  0.00000000  0.00000000       0.148
   0.33333333  0.33333333  0.00000000       0.148
   0.00000000  0.00000000  0.33333333       0.074
   0.33333333  0.00000000  0.33333333       0.296
   0.33333333  0.33333333  0.33333333       0.296
 
 position of ions in fractional coordinates (direct lattice) 
   0.00000000  0.00000000  0.00000000
   0.00000000  0.00000000  0.50000000
   0.00000000  0.50000000  0.00000000
   0.00000000  0.50000000  0.50000000
   0.50000000  0.00000000  0.00000000
   0.50000000  0.00000000  0.50000000
   0.50000000  0.50000000  0.00000000
   0.50000000  0.50000000  0.50000000
   0.25000000  0.25000000  0.00000000
   0.25000000  0.25000000  0.50000000
   0.25000000  0.75000000  0.00000000
   0.25000000  0.75000000  0.50000000
   0.75000000  0.25000000  0.00000000
   0.75000000  0.25000000  0.50000000
   0.75000000  0.75000000  0.00000000
   0.75000000  0.75000000  0.50000000
   0.25000000  0.00000000  0.25000000
   0.25000000  0.00000000  0.75000000
   0.25000000  0.50000000  0.25000000
   0.25000000  0.50000000  0.75000000
   0.75000000  0.00000000  0.25000000
   0.75000000  0.00000000  0.75000000
   0.75000000  0.50000000  0.25000000
   0.75000000  0.50000000  0.75000000
   0.00000000  0.25000000  0.25000000
   0.00000000  0.25000000  0.75000000
   0.00000000  0.75000000  0.25000000
   0.00000000  0.75000000  0.75000000
   0.50000000  0.25000000  0.25000000
   0.50000000  0.25000000  0.75000000
   0.50000000  0.75000000  0.25000000
   0.50000000  0.75000000  0.75000000
   0.25000000  0.25000000  0.25000000
   0.25000000  0.25000000  0.75000000
   0.25000000  0.75000000  0.25000000
   0.25000000  0.75000000  0.75000000
   0.75000000  0.25000000  0.25000000
   0.75000000  0.25000000  0.75000000
   0.75000000  0.75000000  0.25000000
   0.75000000  0.75000000  0.75000000
   0.00000000  0.00000000  0.25000000
   0.00000000  0.00000000  0.75000000
   0.00000000  0.50000000  0.25000000
   0.00000000  0.50000000  0.75000000
   0.50000000  0.00000000  0.25000000
   0.50000000  0.00000000  0.75000000
   0.50000000  0.50000000  0.25000000
   0.50000000  0.50000000  0.75000000
   0.00000000  0.25000000  0.00000000
   0.00000000  0.25000000  0.50000000
   0.00000000  0.75000000  0.00000000
   0.00000000  0.75000000  0.50000000
   0.50000000  0.25000000  0.00000000
   0.50000000  0.25000000  0.50000000
   0.50000000  0.75000000  0.00000000
   0.50000000  0.75000000  0.50000000
   0.25000000  0.00000000  0.00000000
   0.25000000  0.00000000  0.50000000
   0.25000000  0.50000000  0.00000000
   0.25000000  0.50000000  0.50000000
   0.75000000  0.00000000  0.00000000
   0.75000000  0.00000000  0.50000000
   0.75000000  0.50000000  0.00000000
   0.75000000  0.50000000  0.50000000
 
 position of ions in cartesian coordinates  (Angst):
   0.00000000  0.00000000  0.00000000
   0.00000000  0.00000000  4.17383050
   0.00000000  4.17383050  0.00000000
   0.00000000  4.17383050  4.17383050
   4.17383050  0.00000000  0.00000000
   4.17383050  0.00000000  4.17383050
   4.17383050  4.17383050  0.00000000
   4.17383050  4.17383050  4.17383050
   2.08691525  2.08691525  0.00000000
   2.08691525  2.08691525  4.17383050
   2.08691525  6.26074575  0.00000000
   2.08691525  6.26074575  4.17383050
   6.26074575  2.08691525  0.00000000
   6.26074575  2.08691525  4.17383050
   6.26074575  6.26074575  0.00000000
   6.26074575  6.26074575  4.17383050
   2.08691525  0.00000000  2.08691525
   2.08691525  0.00000000  6.26074575
   2.08691525  4.17383050  2.08691525
   2.08691525  4.17383050  6.26074575
   6.26074575  0.00000000  2.08691525
   6.26074575  0.00000000  6.26074575
   6.26074575  4.17383050  2.08691525
   6.26074575  4.17383050  6.26074575
   0.00000000  2.08691525  2.08691525
   0.00000000  2.08691525  6.26074575
   0.00000000  6.26074575  2.08691525
   0.00000000  6.26074575  6.26074575
   4.17383050  2.08691525  2.08691525
   4.17383050  2.08691525  6.26074575
   4.17383050  6.26074575  2.08691525
   4.17383050  6.26074575  6.26074575
   2.08691525  2.08691525  2.08691525
   2.08691525  2.08691525  6.26074575
   2.08691525  6.26074575  2.08691525
   2.08691525  6.26074575  6.26074575
   6.26074575  2.08691525  2.08691525
   6.26074575  2.08691525  6.26074575
   6.26074575  6.26074575  2.08691525
   6.26074575  6.26074575  6.26074575
   0.00000000  0.00000000  2.08691525
   0.00000000  0.00000000  6.26074575
   0.00000000  4.17383050  2.08691525
   0.00000000  4.17383050  6.26074575
   4.17383050  0.00000000  2.08691525
   4.17383050  0.00000000  6.26074575
   4.17383050  4.17383050  2.08691525
   4.17383050  4.17383050  6.26074575
   0.00000000  2.08691525  0.00000000
   0.00000000  2.08691525  4.17383050
   0.00000000  6.26074575  0.00000000
   0.00000000  6.26074575  4.17383050
   4.17383050  2.08691525  0.00000000
   4.17383050  2.08691525  4.17383050
   4.17383050  6.26074575  0.00000000
   4.17383050  6.26074575  4.17383050
   2.08691525  0.00000000  0.00000000
   2.08691525  0.00000000  4.17383050
   2.08691525  4.17383050  0.00000000
   2.08691525  4.17383050  4.17383050
   6.26074575  0.00000000  0.00000000
   6.26074575  0.00000000  4.17383050
   6.26074575  4.17383050  0.00000000
   6.26074575  4.17383050  4.17383050
 


--------------------------------------------------------------------------------------------------------


 k-point  1 :   0.0000 0.0000 0.0000  plane waves:   19381
 k-point  2 :   0.3333 0.0000 0.0000  plane waves:   19438
 k-point  3 :   0.3333 0.3333 0.0000  plane waves:   19402
 k-point  4 :   0.0000 0.0000 0.3333  plane waves:   19438
 k-point  5 :   0.3333 0.0000 0.3333  plane waves:   19402
 k-point  6 :   0.3333 0.3333 0.3333  plane waves:   19393

 maximum and minimum number of plane-waves per node :     19438    19381

 maximum number of plane-waves:     19438
 maximum index in each direction: 
   IXMAX=   16   IYMAX=   16   IZMAX=   16
   IXMIN=  -17   IYMIN=  -17   IZMIN=  -17


 serial   3D FFT for wavefunctions
 parallel 3D FFT for charge:
    minimum data exchange during FFTs selected (reduces bandwidth)


 total amount of memory used by VASP MPI-rank0  2099343. kBytes
=======================================================================

   base      :      30000. kBytes
   nonlr-proj:      38118. kBytes
   fftplans  :      34720. kBytes
   grid      :      91360. kBytes
   one-center:      10328. kBytes
   wavefun   :    1894817. kBytes
 
     INWAV:  cpu time    1.4894: real time    1.4888
 Broyden mixing: mesh for mixing (old mesh)
   NGX = 33   NGY = 33   NGZ = 33
  (NGX  =100   NGY  =100   NGZ  =100)
  gives a total of  35937 points

 initial charge density was supplied:
 number of electron     768.0003318 magnetization       0.0000000
 keeping initial charge density in first step


--------------------------------------------------------------------------------------------------------


 Maximum index for non-local projection operator         2176
 Maximum index for augmentation-charges         4625 (set IRDMAX)


--------------------------------------------------------------------------------------------------------


 First call to EWALD:  gamma=   0.212
 Maximum number of real-space cells 3x 3x 3
 Maximum number of reciprocal cells 3x 3x 3

    FEWALD:  cpu time    0.0124: real time    0.0124


----------------------------------------- Iteration    1(   1)  ---------------------------------------


    POTLOK:  cpu time    0.9566: real time    0.9562
    SETDIJ:  cpu time    0.3974: real time    0.3973
     EDDAV:  cpu time   18.8512: real time   18.8679
       DOS:  cpu time    0.0078: real time    0.0078
    CHARGE:  cpu time    4.3674: real time    4.3662
    MIXING:  cpu time    0.0201: real time    0.0201
    --------------------------------------------
      LOOP:  cpu time   24.6029: real time   24.6179

 eigenvalue-minimisations  : 17520
 total energy-change (2. order) :-0.3563224E+03  (-0.5579255E+02)
 number of electron     768.0004136 magnetization       0.0000000
 augmentation part      308.9554595 magnetization       0.0000000

 Broyden mixing:
  rms(total) = 0.33986E+01    rms(broyden)= 0.33868E+01
  rms(prec ) = 0.34591E+01
  weight for this iteration     100.00

 Free energy of the ion-electron system (eV)
  ---------------------------------------------------
  alpha Z        PSCENC =      5454.96200761
  Ewald energy   TEWEN  =   -104104.01822134
  -Hartree energ DENC   =    -47391.22481477
  -exchange      EXHF   =         0.00000000
  -V(xc)+E(xc)   XCENC  =      5134.46893232
  PAW double counting   =    142077.22770907  -148126.97835835
  entropy T*S    EENTRO =        -0.00007656
  eigenvalues    EBANDS =    -15806.38196597
  atomic energy  EATOM  =    162405.62235658
  Solvation  Ediel_sol  =         0.00000000
  ---------------------------------------------------
  free energy    TOTEN  =      -356.32243141 eV

  energy without entropy =     -356.32235486  energy(sigma->0) =     -356.32239314


--------------------------------------------------------------------------------------------------------




----------------------------------------- Iteration    1(   2)  ---------------------------------------


    POTLOK:  cpu time    0.9695: real time    0.9691
    SETDIJ:  cpu time    0.4102: real time    0.4100
     EDDAV:  cpu time   19.9924: real time   20.0083
       DOS:  cpu time    0.0081: real time    0.0081
    CHARGE:  cpu time    4.3658: real time    4.3646
    MIXING:  cpu time    0.0250: real time    0.0250
    --------------------------------------------
      LOOP:  cpu time   25.7716: real time   25.7858

 eigenvalue-minimisations  : 18968
 total energy-change (2. order) :-0.3366822E+02  (-0.2636257E+02)
 number of electron     768.0003975 magnetization       0.0000000
 augmentation part      312.4828430 magnetization       0.0000000

 Broyden mixing:
  rms(total) = 0.16438E+01    rms(broyden)= 0.16416E+01
  rms(prec ) = 0.19330E+01
  weight for this iteration     100.00

 eigenvalues of (default mixing * dielectric matrix)
  average eigenvalue GAMMA=   0.8312
  0.8312

 Free energy of the ion-electron system (eV)
  ---------------------------------------------------
  alpha Z        PSCENC =      5454.96200761
  Ewald energy   TEWEN  =   -104104.01822134
  -Hartree energ DENC   =    -47418.90601027
  -exchange      EXHF   =         0.00000000
  -V(xc)+E(xc)   XCENC  =      5133.31295382
  PAW double counting   =    141805.55438063  -147836.93049249
  entropy T*S    EENTRO =        -0.00013316
  eigenvalues    EBANDS =    -15829.58749272
  atomic energy  EATOM  =    162405.62235658
  Solvation  Ediel_sol  =         0.00000000
  ---------------------------------------------------
  free energy    TOTEN  =      -389.99065134 eV

  energy without entropy =     -389.99051819  energy(sigma->0) =     -389.99058476


--------------------------------------------------------------------------------------------------------




----------------------------------------- Iteration    1(   3)  ---------------------------------------


    POTLOK:  cpu time    0.9655: real time    0.9652
    SETDIJ:  cpu time    0.4071: real time    0.4069
     EDDAV:  cpu time   19.2829: real time   19.2962
       DOS:  cpu time    0.0079: real time    0.0079
    CHARGE:  cpu time    4.3455: real time    4.3451
    MIXING:  cpu time    0.0287: real time    0.0287
    --------------------------------------------
      LOOP:  cpu time   25.0384: real time   25.0506

 eigenvalue-minimisations  : 18040
 total energy-change (2. order) :-0.2147739E+01  (-0.2830463E+01)
 number of electron     768.0003892 magnetization       0.0000000
 augmentation part      308.2748385 magnetization       0.0000000

 Broyden mixing:
  rms(total) = 0.44922E+00    rms(broyden)= 0.44883E+00
  rms(prec ) = 0.52923E+00
  weight for this iteration     100.00

 eigenvalues of (default mixing * dielectric matrix)
  average eigenvalue GAMMA=   0.8712
  1.1039  0.6385

 Free energy of the ion-electron system (eV)
  ---------------------------------------------------
  alpha Z        PSCENC =      5454.96200761
  Ewald energy   TEWEN  =   -104104.01822134
  -Hartree energ DENC   =    -47688.35065757
  -exchange      EXHF   =         0.00000000
  -V(xc)+E(xc)   XCENC  =      5139.98438476
  PAW double counting   =    142098.03098485  -148196.32690413
  entropy T*S    EENTRO =        -0.00010973
  eigenvalues    EBANDS =    -15502.04223101
  atomic energy  EATOM  =    162405.62235658
  Solvation  Ediel_sol  =         0.00000000
  ---------------------------------------------------
  free energy    TOTEN  =      -392.13838998 eV

  energy without entropy =     -392.13828025  energy(sigma->0) =     -392.13833511


--------------------------------------------------------------------------------------------------------




----------------------------------------- Iteration    1(   4)  ---------------------------------------


    POTLOK:  cpu time    0.9657: real time    0.9655
    SETDIJ:  cpu time    0.4076: real time    0.4074
     EDDAV:  cpu time   20.7511: real time   20.7594
       DOS:  cpu time    0.0080: real time    0.0080
    CHARGE:  cpu time    4.3623: real time    4.3611
    MIXING:  cpu time    0.0321: real time    0.0321
    --------------------------------------------
      LOOP:  cpu time   26.5274: real time   26.5341

 eigenvalue-minimisations  : 19904
 total energy-change (2. order) :-0.3978689E+00  (-0.6072479E+00)
 number of electron     768.0003926 magnetization       0.0000000
 augmentation part      309.2905218 magnetization       0.0000000

 Broyden mixing:
  rms(total) = 0.49072E+00    rms(broyden)= 0.48997E+00
  rms(prec ) = 0.51329E+00
  weight for this iteration     100.00

 eigenvalues of (default mixing * dielectric matrix)
  average eigenvalue GAMMA=   0.8333
  1.4334  0.6679  0.3985

 Free energy of the ion-electron system (eV)
  ---------------------------------------------------
  alpha Z        PSCENC =      5454.96200761
  Ewald energy   TEWEN  =   -104104.01822134
  -Hartree energ DENC   =    -47640.09625780
  -exchange      EXHF   =         0.00000000
  -V(xc)+E(xc)   XCENC  =      5138.69478395
  PAW double counting   =    141777.41675802  -147846.33564158
  entropy T*S    EENTRO =        -0.00010698
  eigenvalues    EBANDS =    -15578.78193732
  atomic energy  EATOM  =    162405.62235658
  Solvation  Ediel_sol  =         0.00000000
  ---------------------------------------------------
  free energy    TOTEN  =      -392.53625886 eV

  energy without entropy =     -392.53615189  energy(sigma->0) =     -392.53620537


--------------------------------------------------------------------------------------------------------




----------------------------------------- Iteration    1(   5)  ---------------------------------------


    POTLOK:  cpu time    0.9648: real time    0.9645
    SETDIJ:  cpu time    0.4073: real time    0.4071
     EDDAV:  cpu time   21.5688: real time   21.6204
       DOS:  cpu time    0.0080: real time    0.0080
    CHARGE:  cpu time    4.3601: real time    4.3589
    MIXING:  cpu time    0.0356: real time    0.0356
    --------------------------------------------
      LOOP:  cpu time   27.3453: real time   27.3953

 eigenvalue-minimisations  : 20976
 total energy-change (2. order) :-0.1616754E+00  (-0.8688569E-01)
 number of electron     768.0003928 magnetization       0.0000000
 augmentation part      309.0043989 magnetization       0.0000000

 Broyden mixing:
  rms(total) = 0.28403E+00    rms(broyden)= 0.28310E+00
  rms(prec ) = 0.28912E+00
  weight for this iteration     100.00

 eigenvalues of (default mixing * dielectric matrix)
  average eigenvalue GAMMA=   0.9733
  1.7328  0.6232  0.7687  0.7687

 Free energy of the ion-electron system (eV)
  ---------------------------------------------------
  alpha Z        PSCENC =      5454.96200761
  Ewald energy   TEWEN  =   -104104.01822134
  -Hartree energ DENC   =    -47665.22434981
  -exchange      EXHF   =         0.00000000
  -V(xc)+E(xc)   XCENC  =      5138.72782118
  PAW double counting   =    141669.07252776  -147734.83415191
  entropy T*S    EENTRO =        -0.00020181
  eigenvalues    EBANDS =    -15557.00572249
  atomic energy  EATOM  =    162405.62235658
  Solvation  Ediel_sol  =         0.00000000
  ---------------------------------------------------
  free energy    TOTEN  =      -392.69793423 eV

  energy without entropy =     -392.69773243  energy(sigma->0) =     -392.69783333


--------------------------------------------------------------------------------------------------------




----------------------------------------- Iteration    1(   6)  ---------------------------------------


    POTLOK:  cpu time    0.9622: real time    0.9617
    SETDIJ:  cpu time    0.4081: real time    0.4080
     EDDAV:  cpu time   21.5362: real time   21.5698
       DOS:  cpu time    0.0082: real time    0.0082
    CHARGE:  cpu time    4.3530: real time    4.3527
    MIXING:  cpu time    0.0399: real time    0.0399
    --------------------------------------------
      LOOP:  cpu time   27.3084: real time   27.3410

 eigenvalue-minimisations  : 21264
 total energy-change (2. order) :-0.7341903E-01  (-0.3670372E-01)
 number of electron     768.0003931 magnetization       0.0000000
 augmentation part      309.1283369 magnetization       0.0000000

 Broyden mixing:
  rms(total) = 0.21880E+00    rms(broyden)= 0.21818E+00
  rms(prec ) = 0.22709E+00
  weight for this iteration     100.00

 eigenvalues of (default mixing * dielectric matrix)
  average eigenvalue GAMMA=   0.9243
  1.8660  0.8609  0.8609  0.6105  0.4231

 Free energy of the ion-electron system (eV)
  ---------------------------------------------------
  alpha Z        PSCENC =      5454.96200761
  Ewald energy   TEWEN  =   -104104.01822134
  -Hartree energ DENC   =    -47662.36064779
  -exchange      EXHF   =         0.00000000
  -V(xc)+E(xc)   XCENC  =      5137.98854053
  PAW double counting   =    141596.64462340  -147656.04544563
  entropy T*S    EENTRO =        -0.00033994
  eigenvalues    EBANDS =    -15565.56422667
  atomic energy  EATOM  =    162405.62235658
  Solvation  Ediel_sol  =         0.00000000
  ---------------------------------------------------
  free energy    TOTEN  =      -392.77135326 eV

  energy without entropy =     -392.77101332  energy(sigma->0) =     -392.77118329


--------------------------------------------------------------------------------------------------------




----------------------------------------- Iteration    1(   7)  ---------------------------------------


    POTLOK:  cpu time    0.9569: real time    0.9565
    SETDIJ:  cpu time    0.4070: real time    0.4069
     EDDAV:  cpu time   21.6916: real time   21.7128
       DOS:  cpu time    0.0084: real time    0.0083
    CHARGE:  cpu time    4.3592: real time    4.3587
    MIXING:  cpu time    0.0437: real time    0.0437
    --------------------------------------------
      LOOP:  cpu time   27.4674: real time   27.4876

 eigenvalue-minimisations  : 21064
 total energy-change (2. order) :-0.3918403E-01  (-0.2965618E-01)
 number of electron     768.0003931 magnetization       0.0000000
 augmentation part      309.0251694 magnetization       0.0000000

 Broyden mixing:
  rms(total) = 0.29580E+00    rms(broyden)= 0.29527E+00
  rms(prec ) = 0.29778E+00
  weight for this iteration     100.00

 eigenvalues of (default mixing * dielectric matrix)
  average eigenvalue GAMMA=   0.9345
  1.8041  0.9141  0.8820  0.8820  0.5276  0.5973

 Free energy of the ion-electron system (eV)
  ---------------------------------------------------
  alpha Z        PSCENC =      5454.96200761
  Ewald energy   TEWEN  =   -104104.01822134
  -Hartree energ DENC   =    -47671.71427027
  -exchange      EXHF   =         0.00000000
  -V(xc)+E(xc)   XCENC  =      5138.06621883
  PAW double counting   =    141590.57594444  -147650.22218191
  entropy T*S    EENTRO =        -0.00030403
  eigenvalues    EBANDS =    -15556.08208719
  atomic energy  EATOM  =    162405.62235658
  Solvation  Ediel_sol  =         0.00000000
  ---------------------------------------------------
  free energy    TOTEN  =      -392.81053729 eV

  energy without entropy =     -392.81023325  energy(sigma->0) =     -392.81038527


--------------------------------------------------------------------------------------------------------




----------------------------------------- Iteration    1(   8)  ---------------------------------------


    POTLOK:  cpu time    0.9624: real time    0.9621
    SETDIJ:  cpu time    0.4074: real time    0.4073
     EDDAV:  cpu time   20.0540: real time   20.0696
       DOS:  cpu time    0.0082: real time    0.0082
    CHARGE:  cpu time    4.3452: real time    4.3448
    MIXING:  cpu time    0.0438: real time    0.0438
    --------------------------------------------
      LOOP:  cpu time   25.8217: real time   25.8366

 eigenvalue-minimisations  : 19304
 total energy-change (2. order) : 0.6043576E-01  (-0.2674902E-01)
 number of electron     768.0003928 magnetization       0.0000000
 augmentation part      309.0236916 magnetization       0.0000000

 Broyden mixing:
  rms(total) = 0.18353E+00    rms(broyden)= 0.18270E+00
  rms(prec ) = 0.18338E+00
  weight for this iteration     100.00

 eigenvalues of (default mixing * dielectric matrix)
  average eigenvalue GAMMA=   1.0389
  1.9362  1.7602  0.8203  0.8203  0.8011  0.6054  0.5292

 Free energy of the ion-electron system (eV)
  ---------------------------------------------------
  alpha Z        PSCENC =      5454.96200761
  Ewald energy   TEWEN  =   -104104.01822134
  -Hartree energ DENC   =    -47667.04489281
  -exchange      EXHF   =         0.00000000
  -V(xc)+E(xc)   XCENC  =      5138.23859153
  PAW double counting   =    141589.53947676  -147649.60454933
  entropy T*S    EENTRO =        -0.00016716
  eigenvalues    EBANDS =    -15560.44470335
  atomic energy  EATOM  =    162405.62235658
  Solvation  Ediel_sol  =         0.00000000
  ---------------------------------------------------
  free energy    TOTEN  =      -392.75010153 eV

  energy without entropy =     -392.74993438  energy(sigma->0) =     -392.75001795


--------------------------------------------------------------------------------------------------------




----------------------------------------- Iteration    1(   9)  ---------------------------------------


    POTLOK:  cpu time    0.9559: real time    0.9556
    SETDIJ:  cpu time    0.4084: real time    0.4083
     EDDAV:  cpu time   22.0627: real time   22.0787
       DOS:  cpu time    0.0075: real time    0.0075
    CHARGE:  cpu time    4.3576: real time    4.3564
    MIXING:  cpu time    0.0512: real time    0.0511
    --------------------------------------------
      LOOP:  cpu time   27.8439: real time   27.8582

 eigenvalue-minimisations  : 21544
 total energy-change (2. order) : 0.4144720E-01  (-0.3159156E-02)
 number of electron     768.0003928 magnetization      -0.0000000
 augmentation part      309.0655178 magnetization      -0.0000000

 Broyden mixing:
  rms(total) = 0.20341E+00    rms(broyden)= 0.20290E+00
  rms(prec ) = 0.20428E+00
  weight for this iteration     100.00

 eigenvalues of (default mixing * dielectric matrix)
  average eigenvalue GAMMA=   1.0770
  2.7580  1.8848  0.9821  0.6418  0.6418  0.7396  0.5640  0.4040

 Free energy of the ion-electron system (eV)
  ---------------------------------------------------
  alpha Z        PSCENC =      5454.96200761
  Ewald energy   TEWEN  =   -104104.01822134
  -Hartree energ DENC   =    -47662.21737364
  -exchange      EXHF   =         0.00000000
  -V(xc)+E(xc)   XCENC  =      5138.43956897
  PAW double counting   =    141549.92745191  -147609.69841989
  entropy T*S    EENTRO =        -0.00013315
  eigenvalues    EBANDS =    -15565.72589138
  atomic energy  EATOM  =    162405.62235658
  Solvation  Ediel_sol  =         0.00000000
  ---------------------------------------------------
  free energy    TOTEN  =      -392.70865434 eV

  energy without entropy =     -392.70852119  energy(sigma->0) =     -392.70858776


--------------------------------------------------------------------------------------------------------




----------------------------------------- Iteration    1(  10)  ---------------------------------------


    POTLOK:  cpu time    0.9578: real time    0.9575
    SETDIJ:  cpu time    0.4073: real time    0.4070
     EDDAV:  cpu time   21.7709: real time   21.8126
       DOS:  cpu time    0.0081: real time    0.0081
    CHARGE:  cpu time    4.3567: real time    4.3559
    MIXING:  cpu time    0.0591: real time    0.0591
    --------------------------------------------
      LOOP:  cpu time   27.5605: real time   27.6008

 eigenvalue-minimisations  : 21488
 total energy-change (2. order) : 0.1159252E+00  (-0.6299740E-02)
 number of electron     768.0003926 magnetization       0.0000000
 augmentation part      309.1201668 magnetization       0.0000000

 Broyden mixing:
  rms(total) = 0.41120E+00    rms(broyden)= 0.41100E+00
  rms(prec ) = 0.41543E+00
  weight for this iteration     100.00

 eigenvalues of (default mixing * dielectric matrix)
  average eigenvalue GAMMA=   0.8991
  1.7805  1.0440  1.0440  0.9840  0.7190  0.7190  0.7738  0.5701  0.4572

 Free energy of the ion-electron system (eV)
  ---------------------------------------------------
  alpha Z        PSCENC =      5454.96200761
  Ewald energy   TEWEN  =   -104104.01822134
  -Hartree energ DENC   =    -47655.10479009
  -exchange      EXHF   =         0.00000000
  -V(xc)+E(xc)   XCENC  =      5138.88419412
  PAW double counting   =    141487.88755174  -147547.97773631
  entropy T*S    EENTRO =        -0.00014310
  eigenvalues    EBANDS =    -15572.84794833
  atomic energy  EATOM  =    162405.62235658
  Solvation  Ediel_sol  =         0.00000000
  ---------------------------------------------------
  free energy    TOTEN  =      -392.59272911 eV

  energy without entropy =     -392.59258601  energy(sigma->0) =     -392.59265756


--------------------------------------------------------------------------------------------------------




----------------------------------------- Iteration    1(  11)  ---------------------------------------


    POTLOK:  cpu time    0.9537: real time    0.9534
    SETDIJ:  cpu time    0.4087: real time    0.4086
     EDDAV:  cpu time   21.1663: real time   21.1879
       DOS:  cpu time    0.0084: real time    0.0084
    CHARGE:  cpu time    4.3668: real time    4.3658
    MIXING:  cpu time    0.0566: real time    0.0566
    --------------------------------------------
      LOOP:  cpu time   26.9610: real time   26.9811

 eigenvalue-minimisations  : 20400
 total energy-change (2. order) :-0.1451049E+00  (-0.1562680E-01)
 number of electron     768.0003930 magnetization       0.0000000
 augmentation part      309.1060402 magnetization       0.0000000

 Broyden mixing:
  rms(total) = 0.23465E+00    rms(broyden)= 0.23406E+00
  rms(prec ) = 0.24013E+00
  weight for this iteration     100.00

 eigenvalues of (default mixing * dielectric matrix)
  average eigenvalue GAMMA=   0.9998
  1.4253  1.4253  1.7347  1.0801  1.0801  0.8392  0.8392  0.6387  0.4952  0.4400

 Free energy of the ion-electron system (eV)
  ---------------------------------------------------
  alpha Z        PSCENC =      5454.96200761
  Ewald energy   TEWEN  =   -104104.01822134
  -Hartree energ DENC   =    -47664.24178701
  -exchange      EXHF   =         0.00000000
  -V(xc)+E(xc)   XCENC  =      5138.28520087
  PAW double counting   =    141531.61706210  -147590.14336598
  entropy T*S    EENTRO =        -0.00020394
  eigenvalues    EBANDS =    -15564.82088291
  atomic energy  EATOM  =    162405.62235658
  Solvation  Ediel_sol  =         0.00000000
  ---------------------------------------------------
  free energy    TOTEN  =      -392.73783403 eV

  energy without entropy =     -392.73763010  energy(sigma->0) =     -392.73773207


--------------------------------------------------------------------------------------------------------




----------------------------------------- Iteration    1(  12)  ---------------------------------------


    POTLOK:  cpu time    0.9556: real time    0.9552
    SETDIJ:  cpu time    0.4064: real time    0.4063
     EDDAV:  cpu time   21.7453: real time   21.7583
       DOS:  cpu time    0.0073: real time    0.0073
    CHARGE:  cpu time    4.3563: real time    4.3552
    MIXING:  cpu time    0.0689: real time    0.0689
    --------------------------------------------
      LOOP:  cpu time   27.5406: real time   27.5519

 eigenvalue-minimisations  : 21472
 total energy-change (2. order) :-0.7635228E-01  (-0.5474711E-01)
 number of electron     768.0003933 magnetization       0.0000000
 augmentation part      309.0571743 magnetization       0.0000000

 Broyden mixing:
  rms(total) = 0.39119E+00    rms(broyden)= 0.38984E+00
  rms(prec ) = 0.39346E+00
  weight for this iteration     100.00

 eigenvalues of (default mixing * dielectric matrix)
  average eigenvalue GAMMA=   0.9702
  1.5129  1.5129  1.7849  1.3445  0.9620  0.8179  0.8179  0.6698  0.5178  0.4298
  0.3019

 Free energy of the ion-electron system (eV)
  ---------------------------------------------------
  alpha Z        PSCENC =      5454.96200761
  Ewald energy   TEWEN  =   -104104.01822134
  -Hartree energ DENC   =    -47673.92773876
  -exchange      EXHF   =         0.00000000
  -V(xc)+E(xc)   XCENC  =      5138.02464736
  PAW double counting   =    141541.96087213  -147598.94402518
  entropy T*S    EENTRO =        -0.00026630
  eigenvalues    EBANDS =    -15556.49381841
  atomic energy  EATOM  =    162405.62235658
  Solvation  Ediel_sol  =         0.00000000
  ---------------------------------------------------
  free energy    TOTEN  =      -392.81418632 eV

  energy without entropy =     -392.81392002  energy(sigma->0) =     -392.81405317


--------------------------------------------------------------------------------------------------------




----------------------------------------- Iteration    1(  13)  ---------------------------------------


    POTLOK:  cpu time    0.9619: real time    0.9615
    SETDIJ:  cpu time    0.4090: real time    0.4088
     EDDAV:  cpu time   22.4730: real time   22.4916
       DOS:  cpu time    0.0087: real time    0.0087
    CHARGE:  cpu time    4.3670: real time    4.3658
    MIXING:  cpu time    0.0661: real time    0.0660
    --------------------------------------------
      LOOP:  cpu time   28.2864: real time   28.3030

 eigenvalue-minimisations  : 22032
 total energy-change (2. order) :-0.5305860E-01  (-0.2229210E-02)
 number of electron     768.0003932 magnetization       0.0000000
 augmentation part      309.0312686 magnetization       0.0000000

 Broyden mixing:
  rms(total) = 0.42003E+00    rms(broyden)= 0.41971E+00
  rms(prec ) = 0.42185E+00
  weight for this iteration     100.00

 eigenvalues of (default mixing * dielectric matrix)
  average eigenvalue GAMMA=   0.9602
  1.5436  1.5436  1.7811  1.7811  0.9746  0.8107  0.8107  0.6533  0.5232  0.4302
  0.3353  0.3353

 Free energy of the ion-electron system (eV)
  ---------------------------------------------------
  alpha Z        PSCENC =      5454.96200761
  Ewald energy   TEWEN  =   -104104.01822134
  -Hartree energ DENC   =    -47678.17291034
  -exchange      EXHF   =         0.00000000
  -V(xc)+E(xc)   XCENC  =      5137.93962257
  PAW double counting   =    141538.17863545  -147594.42929506
  entropy T*S    EENTRO =        -0.00016716
  eigenvalues    EBANDS =    -15552.94927321
  atomic energy  EATOM  =    162405.62235658
  Solvation  Ediel_sol  =         0.00000000
  ---------------------------------------------------
  free energy    TOTEN  =      -392.86724491 eV

  energy without entropy =     -392.86707775  energy(sigma->0) =     -392.86716133


--------------------------------------------------------------------------------------------------------




----------------------------------------- Iteration    1(  14)  ---------------------------------------


    POTLOK:  cpu time    0.9515: real time    0.9510
    SETDIJ:  cpu time    0.4062: real time    0.4061
     EDDAV:  cpu time   21.7674: real time   21.7809
       DOS:  cpu time    0.0026: real time    0.0026
    CHARGE:  cpu time    4.3614: real time    4.3604
    MIXING:  cpu time    0.0822: real time    0.0821
    --------------------------------------------
      LOOP:  cpu time   27.5719: real time   27.5836

 eigenvalue-minimisations  : 21480
 total energy-change (2. order) :-0.8227825E-01  (-0.2038243E-02)
 number of electron     768.0003932 magnetization       0.0000000
 augmentation part      309.0005392 magnetization       0.0000000

 Broyden mixing:
  rms(total) = 0.29671E+00    rms(broyden)= 0.29658E+00
  rms(prec ) = 0.29761E+00
  weight for this iteration     100.00

 eigenvalues of (default mixing * dielectric matrix)
  average eigenvalue GAMMA=   0.9991
  2.3487  1.6205  1.6205  1.8269  1.0087  0.5905  0.5905  0.7206  0.7206  0.6494
  0.5145  0.4717  0.3050

 Free energy of the ion-electron system (eV)
  ---------------------------------------------------
  alpha Z        PSCENC =      5454.96200761
  Ewald energy   TEWEN  =   -104104.01822134
  -Hartree energ DENC   =    -47683.36149758
  -exchange      EXHF   =         0.00000000
  -V(xc)+E(xc)   XCENC  =      5137.73371778
  PAW double counting   =    141551.08491883  -147606.36868118
  entropy T*S    EENTRO =        -0.00000000
  eigenvalues    EBANDS =    -15548.60412386
  atomic energy  EATOM  =    162405.62235658
  Solvation  Ediel_sol  =         0.00000000
  ---------------------------------------------------
  free energy    TOTEN  =      -392.94952317 eV

  energy without entropy =     -392.94952317  energy(sigma->0) =     -392.94952317


--------------------------------------------------------------------------------------------------------




----------------------------------------- Iteration    1(  15)  ---------------------------------------


    POTLOK:  cpu time    0.9619: real time    0.9615
    SETDIJ:  cpu time    0.4070: real time    0.4068
     EDDAV:  cpu time   20.4625: real time   20.4941
       DOS:  cpu time    0.0024: real time    0.0024
    CHARGE:  cpu time    4.3403: real time    4.3397
    MIXING:  cpu time    0.0783: real time    0.0783
    --------------------------------------------
      LOOP:  cpu time   26.2531: real time   26.2834

 eigenvalue-minimisations  : 19512
 total energy-change (2. order) : 0.4314694E-02  (-0.6171677E-03)
 number of electron     768.0003933 magnetization       0.0000000
 augmentation part      309.0034677 magnetization       0.0000000

 Broyden mixing:
  rms(total) = 0.30992E+00    rms(broyden)= 0.30991E+00
  rms(prec ) = 0.31141E+00
  weight for this iteration     100.00

 eigenvalues of (default mixing * dielectric matrix)
  average eigenvalue GAMMA=   1.0374
  1.6969  1.6969  2.2537  2.2537  0.8779  0.8779  1.0008  0.7290  0.7290  0.6605
  0.5118  0.4493  0.4493  0.3375

 Free energy of the ion-electron system (eV)
  ---------------------------------------------------
  alpha Z        PSCENC =      5454.96200761
  Ewald energy   TEWEN  =   -104104.01822134
  -Hartree energ DENC   =    -47682.83017916
  -exchange      EXHF   =         0.00000000
  -V(xc)+E(xc)   XCENC  =      5137.75588812
  PAW double counting   =    141542.97149695  -147598.39437023
  entropy T*S    EENTRO =        -0.00000000
  eigenvalues    EBANDS =    -15549.01418699
  atomic energy  EATOM  =    162405.62235658
  Solvation  Ediel_sol  =         0.00000000
  ---------------------------------------------------
  free energy    TOTEN  =      -392.94520847 eV

  energy without entropy =     -392.94520847  energy(sigma->0) =     -392.94520847


--------------------------------------------------------------------------------------------------------




----------------------------------------- Iteration    1(  16)  ---------------------------------------


    POTLOK:  cpu time    0.9517: real time    0.9516
    SETDIJ:  cpu time    0.4066: real time    0.4065
     EDDAV:  cpu time   21.8751: real time   21.9167
       DOS:  cpu time    0.0019: real time    0.0019
    CHARGE:  cpu time    4.3619: real time    4.3608
    MIXING:  cpu time    0.0942: real time    0.0942
    --------------------------------------------
      LOOP:  cpu time   27.6922: real time   27.7323

 eigenvalue-minimisations  : 21464
 total energy-change (2. order) :-0.1266701E-01  (-0.2011400E-03)
 number of electron     768.0003933 magnetization       0.0000000
 augmentation part      309.0113200 magnetization       0.0000000

 Broyden mixing:
  rms(total) = 0.26436E+00    rms(broyden)= 0.26436E+00
  rms(prec ) = 0.26629E+00
  weight for this iteration     100.00

 eigenvalues of (default mixing * dielectric matrix)
  average eigenvalue GAMMA=   1.1579
  3.8523  2.6175  1.4687  1.4687  1.1620  1.1620  0.8701  0.8701  0.6773  0.6773
  0.6330  0.5382  0.5208  0.5208  0.3302

 Free energy of the ion-electron system (eV)
  ---------------------------------------------------
  alpha Z        PSCENC =      5454.96200761
  Ewald energy   TEWEN  =   -104104.01822134
  -Hartree energ DENC   =    -47682.88289995
  -exchange      EXHF   =         0.00000000
  -V(xc)+E(xc)   XCENC  =      5137.69323045
  PAW double counting   =    141545.32427032  -147600.70986531
  entropy T*S    EENTRO =        -0.00000000
  eigenvalues    EBANDS =    -15548.94875383
  atomic energy  EATOM  =    162405.62235658
  Solvation  Ediel_sol  =         0.00000000
  ---------------------------------------------------
  free energy    TOTEN  =      -392.95787548 eV

  energy without entropy =     -392.95787548  energy(sigma->0) =     -392.95787548


--------------------------------------------------------------------------------------------------------




----------------------------------------- Iteration    1(  17)  ---------------------------------------


    POTLOK:  cpu time    0.9632: real time    0.9628
    SETDIJ:  cpu time    0.4082: real time    0.4081
     EDDAV:  cpu time   21.4142: real time   21.4572
       DOS:  cpu time    0.0075: real time    0.0075
    CHARGE:  cpu time    4.3443: real time    4.3432
    MIXING:  cpu time    0.0889: real time    0.0888
    --------------------------------------------
      LOOP:  cpu time   27.2269: real time   27.2682

 eigenvalue-minimisations  : 20864
 total energy-change (2. order) :-0.3864318E-01  (-0.4007538E-02)
 number of electron     768.0003932 magnetization       0.0000000
 augmentation part      308.9581610 magnetization       0.0000000

 Broyden mixing:
  rms(total) = 0.63535E-01    rms(broyden)= 0.63480E-01
  rms(prec ) = 0.64593E-01
  weight for this iteration     100.00

 eigenvalues of (default mixing * dielectric matrix)
  average eigenvalue GAMMA=   1.0726
  3.4917  2.2366  1.4826  1.4826  0.9404  0.9404  1.1240  1.1240  0.6547  0.6547
  0.6945  0.5151  0.5151  0.4866  0.4866  0.3321

 Free energy of the ion-electron system (eV)
  ---------------------------------------------------
  alpha Z        PSCENC =      5454.96200761
  Ewald energy   TEWEN  =   -104104.01822134
  -Hartree energ DENC   =    -47689.06564295
  -exchange      EXHF   =         0.00000000
  -V(xc)+E(xc)   XCENC  =      5137.34992874
  PAW double counting   =    141577.12547148  -147631.30062043
  entropy T*S    EENTRO =        -0.00000287
  eigenvalues    EBANDS =    -15543.67179545
  atomic energy  EATOM  =    162405.62235658
  Solvation  Ediel_sol  =         0.00000000
  ---------------------------------------------------
  free energy    TOTEN  =      -392.99651865 eV

  energy without entropy =     -392.99651579  energy(sigma->0) =     -392.99651722


--------------------------------------------------------------------------------------------------------




----------------------------------------- Iteration    1(  18)  ---------------------------------------


    POTLOK:  cpu time    0.9502: real time    0.9498
    SETDIJ:  cpu time    0.4065: real time    0.4063
     EDDAV:  cpu time   21.5820: real time   21.5986
       DOS:  cpu time    0.0071: real time    0.0071
    CHARGE:  cpu time    4.3597: real time    4.3592
    MIXING:  cpu time    0.0973: real time    0.0973
    --------------------------------------------
      LOOP:  cpu time   27.4034: real time   27.4189

 eigenvalue-minimisations  : 21008
 total energy-change (2. order) :-0.1695620E-02  (-0.8991028E-03)
 number of electron     768.0003932 magnetization       0.0000000
 augmentation part      308.9566440 magnetization       0.0000000

 Broyden mixing:
  rms(total) = 0.42089E-01    rms(broyden)= 0.42079E-01
  rms(prec ) = 0.44212E-01
  weight for this iteration     100.00

 eigenvalues of (default mixing * dielectric matrix)
  average eigenvalue GAMMA=   1.0351
  3.3174  2.3577  1.4969  1.4969  0.9779  0.9779  1.0606  1.0606  0.7198  0.5217
  0.5217  0.5907  0.5907  0.5443  0.5163  0.5163  0.3284

 Free energy of the ion-electron system (eV)
  ---------------------------------------------------
  alpha Z        PSCENC =      5454.96200761
  Ewald energy   TEWEN  =   -104104.01822134
  -Hartree energ DENC   =    -47688.56202001
  -exchange      EXHF   =         0.00000000
  -V(xc)+E(xc)   XCENC  =      5137.35639978
  PAW double counting   =    141573.06903060  -147627.17280464
  entropy T*S    EENTRO =        -0.00000843
  eigenvalues    EBANDS =    -15544.25495441
  atomic energy  EATOM  =    162405.62235658
  Solvation  Ediel_sol  =         0.00000000
  ---------------------------------------------------
  free energy    TOTEN  =      -392.99821427 eV

  energy without entropy =     -392.99820584  energy(sigma->0) =     -392.99821006


--------------------------------------------------------------------------------------------------------




----------------------------------------- Iteration    1(  19)  ---------------------------------------


    POTLOK:  cpu time    0.9603: real time    0.9599
    SETDIJ:  cpu time    0.4069: real time    0.4067
     EDDAV:  cpu time   20.5841: real time   20.6206
       DOS:  cpu time    0.0022: real time    0.0022
    CHARGE:  cpu time    4.3417: real time    4.3406
    MIXING:  cpu time    0.1138: real time    0.1137
    --------------------------------------------
      LOOP:  cpu time   26.4097: real time   26.4444

 eigenvalue-minimisations  : 19920
 total energy-change (2. order) :-0.8145530E-03  (-0.7032147E-04)
 number of electron     768.0003932 magnetization       0.0000000
 augmentation part      308.9662755 magnetization       0.0000000

 Broyden mixing:
  rms(total) = 0.18283E-01    rms(broyden)= 0.18283E-01
  rms(prec ) = 0.19923E-01
  weight for this iteration     100.00

 eigenvalues of (default mixing * dielectric matrix)
  average eigenvalue GAMMA=   1.0654
  2.7826  2.7826  1.4896  1.4896  1.8246  0.9584  0.9584  0.7514  0.7514  0.9228
  0.7109  0.6241  0.6241  0.5899  0.5425  0.5227  0.5227  0.3294

 Free energy of the ion-electron system (eV)
  ---------------------------------------------------
  alpha Z        PSCENC =      5454.96200761
  Ewald energy   TEWEN  =   -104104.01822134
  -Hartree energ DENC   =    -47687.72879038
  -exchange      EXHF   =         0.00000000
  -V(xc)+E(xc)   XCENC  =      5137.37731215
  PAW double counting   =    141569.05096551  -147623.28990136
  entropy T*S    EENTRO =        -0.00000000
  eigenvalues    EBANDS =    -15544.97475759
  atomic energy  EATOM  =    162405.62235658
  Solvation  Ediel_sol  =         0.00000000
  ---------------------------------------------------
  free energy    TOTEN  =      -392.99902883 eV

  energy without entropy =     -392.99902883  energy(sigma->0) =     -392.99902883


--------------------------------------------------------------------------------------------------------




----------------------------------------- Iteration    1(  20)  ---------------------------------------


    POTLOK:  cpu time    0.9530: real time    0.9525
    SETDIJ:  cpu time    0.4071: real time    0.4069
     EDDAV:  cpu time   21.8880: real time   21.9102
       DOS:  cpu time    0.0020: real time    0.0020
    CHARGE:  cpu time    4.3598: real time    4.3586
    MIXING:  cpu time    0.1085: real time    0.1083
    --------------------------------------------
      LOOP:  cpu time   27.7189: real time   27.7392

 eigenvalue-minimisations  : 21240
 total energy-change (2. order) :-0.6699693E-04  (-0.9633495E-04)
 number of electron     768.0003932 magnetization       0.0000000
 augmentation part      308.9789828 magnetization       0.0000000

 Broyden mixing:
  rms(total) = 0.17187E-01    rms(broyden)= 0.17184E-01
  rms(prec ) = 0.17744E-01
  weight for this iteration     100.00

 eigenvalues of (default mixing * dielectric matrix)
  average eigenvalue GAMMA=   1.0588
  2.7057  2.1972  2.1972  1.5046  1.5046  1.2306  0.9081  0.9081  0.8227  0.8227
  0.9887  0.5853  0.5853  0.6638  0.5731  0.5731  0.5083  0.5083  0.3293

 Free energy of the ion-electron system (eV)
  ---------------------------------------------------
  alpha Z        PSCENC =      5454.96200761
  Ewald energy   TEWEN  =   -104104.01822134
  -Hartree energ DENC   =    -47686.77089372
  -exchange      EXHF   =         0.00000000
  -V(xc)+E(xc)   XCENC  =      5137.41709045
  PAW double counting   =    141561.52132110  -147615.96738381
  entropy T*S    EENTRO =        -0.00000000
  eigenvalues    EBANDS =    -15545.76537268
  atomic energy  EATOM  =    162405.62235658
  Solvation  Ediel_sol  =         0.00000000
  ---------------------------------------------------
  free energy    TOTEN  =      -392.99909582 eV

  energy without entropy =     -392.99909582  energy(sigma->0) =     -392.99909582


--------------------------------------------------------------------------------------------------------




----------------------------------------- Iteration    1(  21)  ---------------------------------------


    POTLOK:  cpu time    0.9498: real time    0.9494
    SETDIJ:  cpu time    0.4068: real time    0.4067
     EDDAV:  cpu time   21.2499: real time   21.2513
       DOS:  cpu time    0.0020: real time    0.0020
    CHARGE:  cpu time    4.3486: real time    4.3480
    MIXING:  cpu time    0.1278: real time    0.1278
    --------------------------------------------
      LOOP:  cpu time   27.0857: real time   27.0859

 eigenvalue-minimisations  : 20736
 total energy-change (2. order) :-0.5865420E-04  (-0.3679170E-04)
 number of electron     768.0003932 magnetization       0.0000000
 augmentation part      308.9714160 magnetization       0.0000000

 Broyden mixing:
  rms(total) = 0.79101E-02    rms(broyden)= 0.79078E-02
  rms(prec ) = 0.88288E-02
  weight for this iteration     100.00

 eigenvalues of (default mixing * dielectric matrix)
  average eigenvalue GAMMA=   1.0904
  2.7561  2.7561  1.5002  1.5002  2.1166  1.7121  0.9717  0.9717  0.7087  0.7087
  0.8952  0.8952  0.5713  0.5713  0.6648  0.5785  0.5785  0.5112  0.5112  0.3295

 Free energy of the ion-electron system (eV)
  ---------------------------------------------------
  alpha Z        PSCENC =      5454.96200761
  Ewald energy   TEWEN  =   -104104.01822134
[...]
   0.122E-11 0.501E-12 0.160E-10   -.197E-12 0.127E-12 -.114E-12   0.794E-22 0.225E-21 -.141E-21   0.170E-12 0.148E-12 -.158E-11
   0.116E-11 0.519E-12 0.137E-11   -.169E-12 0.113E-12 -.568E-13   0.265E-22 0.662E-23 -.463E-22   0.144E-12 0.200E-12 -.171E-12
   0.112E-11 -.207E-12 0.168E-11   -.226E-12 0.160E-12 -.114E-12   -.119E-21 -.827E-23 -.318E-22   0.137E-12 -.334E-12 -.153E-11
   0.117E-11 -.893E-11 0.958E-11   0.162E-14 0.188E-12 -.568E-13   0.371E-21 -.926E-22 0.130E-21   0.168E-12 -.348E-12 0.313E-13
   0.168E-11 0.580E-12 -.463E-11   -.882E-14 0.113E-12 -.114E-12   0.662E-23 0.218E-21 0.993E-22   0.153E-11 0.545E-13 -.800E-12
   0.171E-11 0.445E-12 -.539E-10   -.179E-12 0.113E-12 -.114E-12   0.562E-22 0.235E-21 0.152E-21   0.151E-11 0.675E-13 0.378E-12
   0.176E-11 -.954E-11 -.837E-11   -.222E-12 0.160E-12 -.114E-12   0.236E-21 0.132E-22 -.149E-22   0.141E-11 -.235E-12 -.976E-12
   0.170E-11 0.128E-10 -.774E-11   -.279E-12 0.174E-12 -.114E-12   -.208E-21 0.728E-22 -.993E-22   0.146E-11 -.333E-12 0.799E-12
   0.595E-12 0.102E-11 0.716E-12   -.171E-12 0.171E-12 -.114E-12   0.893E-22 -.265E-22 -.119E-21   0.172E-11 -.443E-12 -.112E-11
   0.659E-12 0.927E-12 0.156E-11   -.171E-12 0.227E-12 -.114E-12   0.179E-21 -.324E-21 0.984E-22   0.177E-11 -.325E-12 0.274E-12
   0.653E-12 0.157E-11 0.835E-12   -.412E-12 0.199E-12 -.568E-13   0.153E-21 0.213E-21 -.211E-22   0.150E-11 0.160E-12 -.126E-11
   0.562E-12 0.165E-11 0.142E-11   -.526E-12 0.114E-12 -.568E-13   -.132E-21 0.134E-21 -.678E-22   0.151E-11 -.247E-13 0.431E-12
   0.204E-12 0.435E-10 0.195E-10   -.341E-12 0.156E-12 -.114E-12   0.860E-22 0.185E-21 -.397E-22   -.184E-11 -.316E-12 -.143E-11
   0.135E-12 0.137E-11 0.294E-11   -.171E-12 0.171E-12 -.568E-13   -.397E-22 -.304E-21 0.562E-22   -.191E-11 -.170E-12 0.218E-12
   0.117E-12 -.719E-11 0.119E-10   -.199E-12 0.128E-12 -.114E-12   -.132E-21 0.192E-21 -.112E-21   -.160E-11 0.243E-12 -.157E-11
   0.183E-12 0.184E-11 -.221E-10   -.171E-12 0.114E-12 -.568E-13   -.397E-22 0.204E-21 0.132E-22   -.161E-11 0.111E-12 0.131E-12
   0.966E-13 -.181E-11 0.968E-12   0.129E-12 0.320E-13 -.142E-13   0.232E-22 -.662E-23 0.116E-22   -.163E-12 0.149E-13 -.415E-12
   0.119E-12 0.394E-11 0.240E-11   0.186E-12 0.604E-13 0.000E+00   -.993E-23 -.281E-22 -.165E-23   -.182E-12 0.162E-13 0.348E-12
   0.158E-12 0.430E-11 0.255E-11   0.106E-12 0.826E-13 -.142E-13   0.108E-22 0.194E-22 0.165E-22   -.185E-12 0.292E-13 -.406E-12
   0.110E-12 -.760E-12 0.224E-11   0.106E-12 0.542E-13 0.000E+00   0.496E-23 0.165E-22 -.827E-23   -.158E-12 0.116E-13 0.366E-12
   0.481E-12 0.485E-11 -.130E-11   0.119E-12 0.497E-13 -.142E-13   -.174E-22 0.108E-22 -.993E-23   0.413E-12 -.163E-13 -.417E-12
   0.458E-12 0.160E-10 -.827E-11   0.119E-12 0.639E-13 0.000E+00   0.000E+00 0.213E-22 0.827E-23   0.426E-12 0.382E-13 0.325E-12
   0.428E-12 -.809E-11 0.117E-10   0.157E-12 0.853E-13 -.142E-13   0.174E-22 -.165E-23 0.116E-22   0.402E-12 0.963E-13 -.466E-12
   0.477E-12 0.165E-11 -.451E-11   0.129E-12 0.568E-13 0.000E+00   0.165E-23 -.128E-22 0.827E-23   0.372E-12 0.337E-13 0.362E-12
   0.245E-12 0.366E-12 0.947E-13   0.613E-13 0.832E-13 -.142E-13   0.538E-23 -.261E-22 0.910E-23   0.557E-12 0.127E-12 -.476E-12
   0.244E-12 0.308E-12 0.442E-12   0.613E-13 0.547E-13 0.000E+00   -.331E-23 -.314E-22 -.682E-23   0.588E-12 0.155E-12 0.266E-12
   0.231E-12 0.128E-12 0.136E-12   0.711E-13 0.622E-13 -.142E-13   -.496E-23 0.327E-22 0.141E-22   0.617E-12 -.133E-13 -.521E-12
   0.230E-12 -.713E-13 -.206E-12   0.711E-13 0.622E-13 0.000E+00   -.205E-22 -.116E-22 0.496E-23   0.583E-12 -.291E-13 0.315E-12
   0.583E-13 0.309E-12 0.190E-10   0.728E-13 0.858E-13 -.142E-13   -.136E-22 0.149E-22 -.132E-22   -.800E-12 0.143E-12 -.425E-12
   0.593E-13 0.328E-12 0.327E-11   0.586E-13 0.716E-13 0.000E+00   -.248E-22 0.145E-22 0.372E-23   -.823E-12 0.120E-12 0.382E-12
   0.661E-13 0.497E-11 0.827E-11   0.497E-13 0.658E-13 -.142E-13   0.124E-22 -.993E-23 0.116E-22   -.872E-12 -.266E-13 -.482E-12
   0.683E-13 0.575E-11 0.496E-11   0.107E-12 0.658E-13 0.000E+00   0.827E-24 -.149E-22 -.662E-23   -.849E-12 0.563E-14 0.400E-12
   0.246E-12 0.549E-13 0.454E-12   0.453E-13 0.240E-13 -.947E-15   0.215E-22 0.141E-22 -.145E-23   0.641E-12 -.275E-13 0.757E-12
   0.230E-12 0.115E-12 0.211E-12   0.355E-13 0.284E-13 0.513E-14   -.281E-22 0.579E-23 -.869E-23   0.632E-12 -.843E-13 -.358E-12
   0.226E-12 0.372E-12 0.413E-12   0.130E-12 0.595E-13 -.104E-14   -.993E-23 0.514E-23 0.662E-23   0.573E-12 -.635E-14 0.801E-12
   0.232E-12 -.259E-12 0.258E-13   0.639E-13 0.426E-13 0.503E-14   -.281E-22 0.372E-23 0.331E-23   0.596E-12 0.437E-13 -.372E-12
   0.502E-13 0.181E-10 -.119E-10   0.986E-13 0.471E-13 -.107E-14   0.827E-23 0.117E-22 -.414E-23   -.859E-12 -.275E-14 0.857E-12
   0.696E-13 0.741E-11 0.828E-11   0.853E-13 0.497E-13 0.501E-14   0.993E-23 0.149E-22 -.993E-23   -.849E-12 -.357E-13 -.279E-12
   0.736E-13 0.271E-11 -.120E-10   0.453E-13 0.728E-13 -.116E-14   -.356E-22 -.145E-23 0.149E-22   -.832E-12 0.745E-13 0.827E-12
   0.698E-13 0.555E-11 0.427E-11   0.497E-13 0.426E-13 0.491E-14   -.165E-22 -.248E-22 0.491E-23   -.860E-12 0.995E-13 -.264E-12
   0.119E-12 0.341E-12 -.301E-12   -.450E-14 0.546E-13 -.488E-14   -.108E-22 -.132E-22 -.517E-23   -.179E-12 0.133E-12 0.853E-12
   0.153E-12 0.337E-12 -.937E-11   -.880E-14 0.573E-13 0.119E-14   -.141E-22 0.252E-22 -.775E-23   -.225E-12 0.141E-12 -.300E-12
   0.146E-12 0.874E-12 -.104E-10   -.177E-13 0.324E-13 -.498E-14   -.132E-22 -.455E-23 0.993E-23   -.188E-12 -.307E-14 0.849E-12
   0.126E-12 0.979E-12 0.619E-12   -.868E-14 0.706E-13 0.109E-14   0.149E-22 -.108E-22 -.248E-23   -.205E-12 -.133E-13 -.302E-12
   0.485E-12 0.319E-12 0.210E-11   0.452E-13 0.740E-13 -.500E-14   -.165E-22 0.188E-22 0.662E-23   0.389E-12 0.837E-13 0.829E-12
   0.451E-12 0.343E-12 -.157E-11   -.124E-13 0.500E-13 0.107E-14   -.149E-22 -.662E-23 0.182E-22   0.427E-12 0.114E-12 -.372E-12
   0.464E-12 -.107E-11 0.130E-10   0.275E-13 0.332E-13 -.510E-14   -.414E-23 -.641E-23 -.744E-23   0.437E-12 0.178E-13 0.780E-12
   0.483E-12 0.506E-11 -.107E-11   0.899E-14 0.634E-13 0.975E-15   -.172E-22 -.414E-23 0.124E-22   0.457E-12 -.141E-13 -.324E-12
 -----------------------------------------------------------------------------------------------
   0.363E-10 0.109E-09 -.577E-10   -.270E-12 -.521E-13 0.120E-12   -.121E-21 0.124E-20 0.202E-21   0.124E-10 -.958E-12 0.405E-11
 
 
 POSITION                                       TOTAL-FORCE (eV/Angst)
 -----------------------------------------------------------------------------------
      0.00000      0.00000      0.00000        -0.000000     -0.000000      0.000000
      0.00000      0.00000      4.17383         0.000000     -0.000000      0.000000
      0.00000      4.17383      0.00000        -0.000000      0.000000     -0.000000
      0.00000      4.17383      4.17383         0.000000     -0.000000     -0.000000
      4.17383      0.00000      0.00000         0.000000      0.000000     -0.000000
      4.17383      0.00000      4.17383        -0.000000     -0.000000     -0.000000
      4.17383      4.17383      0.00000         0.000000     -0.000000      0.000000
      4.17383      4.17383      4.17383        -0.000000      0.000000     -0.000000
      2.08692      2.08692      0.00000        -0.000000     -0.000000     -0.000000
      2.08692      2.08692      4.17383         0.000000     -0.000000      0.000000
      2.08692      6.26075      0.00000        -0.000000      0.000000      0.000000
      2.08692      6.26075      4.17383        -0.000000      0.000000     -0.000000
      6.26075      2.08692      0.00000        -0.000000      0.000000     -0.000000
      6.26075      2.08692      4.17383        -0.000000     -0.000000     -0.000000
      6.26075      6.26075      0.00000         0.000000     -0.000000      0.000000
      6.26075      6.26075      4.17383         0.000000     -0.000000      0.000000
      2.08692      0.00000      2.08692         0.000000     -0.000000      0.000000
      2.08692      0.00000      6.26075        -0.000000     -0.000000     -0.000000
      2.08692      4.17383      2.08692        -0.000000     -0.000000      0.000000
      2.08692      4.17383      6.26075         0.000000      0.000000     -0.000000
      6.26075      0.00000      2.08692        -0.000000     -0.000000      0.000000
      6.26075      0.00000      6.26075         0.000000      0.000000      0.000000
      6.26075      4.17383      2.08692        -0.000000      0.000000     -0.000000
      6.26075      4.17383      6.26075         0.000000      0.000000     -0.000000
      0.00000      2.08692      2.08692        -0.000000     -0.000000      0.000000
      0.00000      2.08692      6.26075         0.000000      0.000000     -0.000000
      0.00000      6.26075      2.08692         0.000000     -0.000000      0.000000
      0.00000      6.26075      6.26075        -0.000000      0.000000     -0.000000
      4.17383      2.08692      2.08692         0.000000     -0.000000     -0.000000
      4.17383      2.08692      6.26075        -0.000000      0.000000     -0.000000
      4.17383      6.26075      2.08692        -0.000000     -0.000000      0.000000
      4.17383      6.26075      6.26075         0.000000      0.000000     -0.000000
      2.08692      2.08692      2.08692        -0.000000     -0.000000     -0.000000
      2.08692      2.08692      6.26075         0.000000     -0.000000      0.000000
      2.08692      6.26075      2.08692        -0.000000      0.000000      0.000000
      2.08692      6.26075      6.26075        -0.000000      0.000000      0.000000
      6.26075      2.08692      2.08692        -0.000000      0.000000      0.000000
      6.26075      2.08692      6.26075        -0.000000      0.000000     -0.000000
      6.26075      6.26075      2.08692         0.000000      0.000000     -0.000000
      6.26075      6.26075      6.26075         0.000000     -0.000000      0.000000
      0.00000      0.00000      2.08692        -0.000000      0.000000     -0.000000
      0.00000      0.00000      6.26075         0.000000     -0.000000     -0.000000
      0.00000      4.17383      2.08692        -0.000000      0.000000     -0.000000
      0.00000      4.17383      6.26075        -0.000000      0.000000      0.000000
      4.17383      0.00000      2.08692        -0.000000      0.000000      0.000000
      4.17383      0.00000      6.26075         0.000000      0.000000      0.000000
      4.17383      4.17383      2.08692         0.000000     -0.000000     -0.000000
      4.17383      4.17383      6.26075         0.000000     -0.000000      0.000000
      0.00000      2.08692      0.00000        -0.000000      0.000000     -0.000000
      0.00000      2.08692      4.17383         0.000000     -0.000000     -0.000000
      0.00000      6.26075      0.00000         0.000000     -0.000000     -0.000000
      0.00000      6.26075      4.17383        -0.000000      0.000000     -0.000000
      4.17383      2.08692      0.00000         0.000000     -0.000000     -0.000000
      4.17383      2.08692      4.17383         0.000000     -0.000000      0.000000
      4.17383      6.26075      0.00000         0.000000     -0.000000      0.000000
      4.17383      6.26075      4.17383         0.000000     -0.000000     -0.000000
      2.08692      0.00000      0.00000        -0.000000      0.000000     -0.000000
      2.08692      0.00000      4.17383        -0.000000      0.000000     -0.000000
      2.08692      4.17383      0.00000         0.000000      0.000000     -0.000000
      2.08692      4.17383      4.17383         0.000000      0.000000      0.000000
      6.26075      0.00000      0.00000         0.000000     -0.000000     -0.000000
      6.26075      0.00000      4.17383        -0.000000      0.000000     -0.000000
      6.26075      4.17383      0.00000         0.000000      0.000000      0.000000
      6.26075      4.17383      4.17383        -0.000000     -0.000000      0.000000
 -----------------------------------------------------------------------------------
    total drift:                                0.000000      0.000000     -0.000000


--------------------------------------------------------------------------------------------------------



  FREE ENERGIE OF THE ION-ELECTRON SYSTEM (eV)
  ---------------------------------------------------
  free  energy   TOTEN  =      -392.99920182 eV

  energy  without entropy=     -392.99920182  energy(sigma->0) =     -392.99920182
 


--------------------------------------------------------------------------------------------------------


    POTLOK:  cpu time    1.3570: real time    1.3566


--------------------------------------------------------------------------------------------------------


 writing wavefunctions
     LOOP+:  cpu time  750.0914: real time  750.7250
    4ORBIT:  cpu time    0.0000: real time    0.0000
 


 total charge     
 
# of ion       s       p       d       f       tot
--------------------------------------------------
    1        2.149   6.210   7.852   0.009  16.220
    2        2.149   6.210   7.852   0.009  16.220
    3        2.149   6.210   7.852   0.009  16.220
    4        2.149   6.210   7.852   0.009  16.220
    5        2.149   6.210   7.852   0.009  16.220
    6        2.149   6.210   7.852   0.009  16.220
    7        2.149   6.210   7.852   0.009  16.220
    8        2.149   6.210   7.852   0.009  16.220
    9        2.149   6.210   7.852   0.009  16.220
   10        2.149   6.210   7.852   0.009  16.220
   11        2.149   6.210   7.852   0.009  16.220
   12        2.149   6.210   7.852   0.009  16.220
   13        2.149   6.210   7.852   0.009  16.220
   14        2.149   6.210   7.852   0.009  16.220
   15        2.149   6.210   7.852   0.009  16.220
   16        2.149   6.210   7.852   0.009  16.220
   17        2.149   6.210   7.852   0.009  16.220
   18        2.149   6.210   7.852   0.009  16.220
   19        2.149   6.210   7.852   0.009  16.220
   20        2.149   6.210   7.852   0.009  16.220
   21        2.149   6.210   7.852   0.009  16.220
   22        2.149   6.210   7.852   0.009  16.220
   23        2.149   6.210   7.852   0.009  16.220
   24        2.149   6.210   7.852   0.009  16.220
   25        2.149   6.210   7.852   0.009  16.220
   26        2.149   6.210   7.852   0.009  16.220
   27        2.149   6.210   7.852   0.009  16.220
   28        2.149   6.210   7.852   0.009  16.220
   29        2.149   6.210   7.852   0.009  16.220
   30        2.149   6.210   7.852   0.009  16.220
   31        2.149   6.210   7.852   0.009  16.220
   32        2.149   6.210   7.852   0.009  16.220
   33        1.635   3.515   0.021   0.000   5.171
   34        1.635   3.515   0.021   0.000   5.171
   35        1.635   3.515   0.021   0.000   5.171
   36        1.635   3.515   0.021   0.000   5.171
   37        1.635   3.515   0.021   0.000   5.171
   38        1.635   3.515   0.021   0.000   5.171
   39        1.635   3.515   0.021   0.000   5.171
   40        1.635   3.515   0.021   0.000   5.171
   41        1.635   3.515   0.021   0.000   5.171
   42        1.635   3.515   0.021   0.000   5.171
   43        1.635   3.515   0.021   0.000   5.171
   44        1.635   3.515   0.021   0.000   5.171
   45        1.635   3.515   0.021   0.000   5.171
   46        1.635   3.515   0.021   0.000   5.171
   47        1.635   3.515   0.021   0.000   5.171
   48        1.635   3.515   0.021   0.000   5.171
   49        1.635   3.515   0.021   0.000   5.171
   50        1.635   3.515   0.021   0.000   5.171
   51        1.635   3.515   0.021   0.000   5.171
   52        1.635   3.515   0.021   0.000   5.171
   53        1.635   3.515   0.021   0.000   5.171
   54        1.635   3.515   0.021   0.000   5.171
   55        1.635   3.515   0.021   0.000   5.171
   56        1.635   3.515   0.021   0.000   5.171
   57        1.635   3.515   0.021   0.000   5.171
   58        1.635   3.515   0.021   0.000   5.171
   59        1.635   3.515   0.021   0.000   5.171
   60        1.635   3.515   0.021   0.000   5.171
   61        1.635   3.515   0.021   0.000   5.171
   62        1.635   3.515   0.021   0.000   5.171
   63        1.635   3.515   0.021   0.000   5.171
   64        1.635   3.515   0.021   0.000   5.171
--------------------------------------------------
tot        121.089 311.208 251.911   0.295 684.503

 


 magnetization (x)
 
# of ion       s       p       d       f       tot
--------------------------------------------------
    1        0.007   0.008   0.644   0.000   0.659
    2        0.007   0.008   0.644   0.000   0.659
    3        0.007   0.008   0.644   0.000   0.659
    4        0.007   0.008   0.644   0.000   0.659
    5        0.007   0.008   0.644   0.000   0.659
    6        0.007   0.008   0.644   0.000   0.659
    7        0.007   0.008   0.644   0.000   0.659
    8        0.007   0.008   0.644   0.000   0.659
    9        0.007   0.008   0.644   0.000   0.659
   10        0.007   0.008   0.644   0.000   0.659
   11        0.007   0.008   0.644   0.000   0.659
   12        0.007   0.008   0.644   0.000   0.659
   13        0.007   0.008   0.644   0.000   0.659
   14        0.007   0.008   0.644   0.000   0.659
   15        0.007   0.008   0.644   0.000   0.659
   16        0.007   0.008   0.644   0.000   0.659
   17       -0.007  -0.008  -0.644  -0.000  -0.659
   18       -0.007  -0.008  -0.644  -0.000  -0.659
   19       -0.007  -0.008  -0.644  -0.000  -0.659
   20       -0.007  -0.008  -0.644  -0.000  -0.659
   21       -0.007  -0.008  -0.644  -0.000  -0.659
   22       -0.007  -0.008  -0.644  -0.000  -0.659
   23       -0.007  -0.008  -0.644  -0.000  -0.659
   24       -0.007  -0.008  -0.644  -0.000  -0.659
   25       -0.007  -0.008  -0.644  -0.000  -0.659
   26       -0.007  -0.008  -0.644  -0.000  -0.659
   27       -0.007  -0.008  -0.644  -0.000  -0.659
   28       -0.007  -0.008  -0.644  -0.000  -0.659
   29       -0.007  -0.008  -0.644  -0.000  -0.659
   30       -0.007  -0.008  -0.644  -0.000  -0.659
   31       -0.007  -0.008  -0.644  -0.000  -0.659
   32       -0.007  -0.008  -0.644  -0.000  -0.659
   33       -0.005  -0.028  -0.000   0.000  -0.034
   34       -0.005  -0.028  -0.000   0.000  -0.034
   35       -0.005  -0.028  -0.000   0.000  -0.034
   36       -0.005  -0.028  -0.000   0.000  -0.034
   37       -0.005  -0.028  -0.000   0.000  -0.034
   38       -0.005  -0.028  -0.000   0.000  -0.034
   39       -0.005  -0.028  -0.000   0.000  -0.034
   40       -0.005  -0.028  -0.000   0.000  -0.034
   41       -0.005  -0.028  -0.000   0.000  -0.034
   42       -0.005  -0.028  -0.000   0.000  -0.034
   43       -0.005  -0.028  -0.000   0.000  -0.034
   44       -0.005  -0.028  -0.000   0.000  -0.034
   45       -0.005  -0.028  -0.000   0.000  -0.034
   46       -0.005  -0.028  -0.000   0.000  -0.034
   47       -0.005  -0.028  -0.000   0.000  -0.034
   48       -0.005  -0.028  -0.000   0.000  -0.034
   49        0.005   0.028   0.000   0.000   0.034
   50        0.005   0.028   0.000   0.000   0.034
   51        0.005   0.028   0.000   0.000   0.034
   52        0.005   0.028   0.000   0.000   0.034
   53        0.005   0.028   0.000   0.000   0.034
   54        0.005   0.028   0.000   0.000   0.034
   55        0.005   0.028   0.000   0.000   0.034
   56        0.005   0.028   0.000   0.000   0.034
   57        0.005   0.028   0.000   0.000   0.034
   58        0.005   0.028   0.000   0.000   0.034
   59        0.005   0.028   0.000   0.000   0.034
   60        0.005   0.028   0.000   0.000   0.034
   61        0.005   0.028   0.000   0.000   0.034
   62        0.005   0.028   0.000   0.000   0.034
   63        0.005   0.028   0.000   0.000   0.034
   64        0.005   0.028   0.000   0.000   0.034
--------------------------------------------------
tot         -0.000   0.000   0.000   0.000   0.000

 
