 vasp.5.4.4.18Apr17-6-g9f103f2a35 (build Oct 10 2019 09:51:33) complex          
  
 executed on   carbon_intel19_gpu date 2020.09.25  15:44:02
 running on    1 total cores
 distrk:  each k-point on    1 cores,    1 groups
 distr:  one band on NCORES_PER_BAND=   1 cores,    1 groups


--------------------------------------------------------------------------------------------------------


 INCAR:
 POTCAR:    PAW_PBE Ni_sv_GW 05Dec2013            
 POTCAR:    PAW_PBE O_GW 19Mar2012                
 POTCAR:    PAW_PBE Ni_sv_GW 05Dec2013            
   VRHFIN =Ni:                                                                  
   LEXCH  = PE                                                                  
   EATOM  =  4642.8712 eV,  341.2414 Ry                                         
                                                                                
   TITEL  = PAW_PBE Ni_sv_GW 05Dec2013                                          
   LULTRA =        F    use ultrasoft PP ?                                      
   IUNSCR =        1    unscreen: 0-lin 1-nonlin 2-no                           
   RPACOR =    1.400    partial core radius                                     
   POMASS =   58.690; ZVAL   =   18.000    mass and valenz                      
   RCORE  =    1.900    outmost cutoff radius                                   
   RWIGS  =    2.100; RWIGS  =    1.111    wigner-seitz radius (au A)           
   ENMAX  =  389.645; ENMIN  =  292.234 eV                                      
   RCLOC  =    1.301    cutoff for local pot                                    
   LCOR   =        T    correct aug charges                                     
   LPAW   =        T    paw PP                                                  
   EAUG   = 1036.387                                                            
   RMAX   =    1.945    core radius for proj-oper                               
   RAUG   =    1.300    factor for augmentation sphere                          
   RDEP   =    1.972    radius for radial grids                                 
   RDEPT  =    1.600    core radius for aug-charge                              
                                                                                
   Atomic configuration                                                         
    8 entries                                                                   
     n  l   j            E        occ.                                          
     1  0  0.50     -8203.3308   2.0000                                         
     2  0  0.50      -972.7019   2.0000                                         
     2  1  1.50      -835.6236   6.0000                                         
     3  0  0.50      -102.6944   2.0000                                         
     3  1  1.50       -63.2363   6.0000                                         
     3  1  1.50       -68.0291   0.0000                                         
     3  2  2.50        -1.9692  10.0000                                         
     4  3  2.50        -1.3606   0.0000                                         
   Description                                                                  
     l       E           TYP  RCUT    TYP  RCUT                                 
     0   -102.6944069     23  1.400                                             
     0      1.3605826     23  1.700                                             
     0    204.0873900     23  1.400                                             
     1    -63.2363356     23  1.650                                             
     1    -68.0291300     23  1.650                                             
     1    136.0582600     23  1.650                                             
     2     -1.9691936     23  1.900                                             
     2     27.2116520     23  1.900                                             
     2    136.0582600     23  1.900                                             
     3     27.2116520     23  1.900                                             
     3    136.0582600     23  1.900                                             
  local pseudopotential read in
  partial core-charges read in
  partial kinetic energy density read in
  kinetic energy density of atom read in
  atomic valenz-charges read in
  non local Contribution for L=           0  read in
    real space projection operators read in
  non local Contribution for L=           0  read in
    real space projection operators read in
  non local Contribution for L=           0  read in
    real space projection operators read in
  non local Contribution for L=           1  read in
    real space projection operators read in
  non local Contribution for L=           1  read in
    real space projection operators read in
  non local Contribution for L=           1  read in
    real space projection operators read in
  non local Contribution for L=           2  read in
    real space projection operators read in
  non local Contribution for L=           2  read in
    real space projection operators read in
  non local Contribution for L=           2  read in
    real space projection operators read in
  non local Contribution for L=           3  read in
    real space projection operators read in
  non local Contribution for L=           3  read in
    real space projection operators read in
    PAW grid and wavefunctions read in
 
   number of l-projection  operators is LMAX  =          11
   number of lm-projection operators is LMMAX =          41
 
 POTCAR:    PAW_PBE O_GW 19Mar2012                
   VRHFIN =O: s2p4                                                              
   LEXCH  = PE                                                                  
   EATOM  =   432.3788 eV,   31.7789 Ry                                         
                                                                                
   TITEL  = PAW_PBE O_GW 19Mar2012                                              
   LULTRA =        F    use ultrasoft PP ?                                      
   IUNSCR =        1    unscreen: 0-lin 1-nonlin 2-no                           
   RPACOR =    0.800    partial core radius                                     
   POMASS =   16.000; ZVAL   =    6.000    mass and valenz                      
   RCORE  =    1.600    outmost cutoff radius                                   
   RWIGS  =    1.600; RWIGS  =    0.847    wigner-seitz radius (au A)           
   ENMAX  =  434.431; ENMIN  =  325.824 eV                                      
   ICORE  =        3    local potential                                         
   LCOR   =        T    correct aug charges                                     
   LPAW   =        T    paw PP                                                  
   EAUG   = 1139.609                                                            
   DEXC   =    0.000                                                            
   RMAX   =    1.629    core radius for proj-oper                               
   RAUG   =    1.300    factor for augmentation sphere                          
   RDEP   =    1.652    radius for radial grids                                 
   RDEPT  =    1.200    core radius for aug-charge                              
                                                                                
   Atomic configuration                                                         
    5 entries                                                                   
     n  l   j            E        occ.                                          
     1  0  0.50      -514.6923   2.0000                                         
     2  0  0.50       -23.9615   2.0000                                         
     2  1  0.50        -9.0305   4.0000                                         
     3  2  1.50        -9.5241   0.0000                                         
     4  3  2.50        -9.5241   0.0000                                         
   Description                                                                  
     l       E           TYP  RCUT    TYP  RCUT                                 
     0    -23.9615316     23  1.150                                             
     0    -25.3221142     23  1.150                                             
     0    244.9048680     23  1.300                                             
     1     -9.0304908     23  1.500                                             
     1     -6.9258396     23  1.500                                             
     1    122.4524340     23  1.500                                             
     2     13.6058260     23  1.500                                             
     2    190.4815640     23  1.600                                             
     3     54.4233040     23  1.400                                             
  local pseudopotential read in
  partial core-charges read in
  partial kinetic energy density read in
  kinetic energy density of atom read in
  atomic valenz-charges read in
  non local Contribution for L=           0  read in
    real space projection operators read in
  non local Contribution for L=           0  read in
    real space projection operators read in
  non local Contribution for L=           0  read in
    real space projection operators read in
  non local Contribution for L=           1  read in
    real space projection operators read in
  non local Contribution for L=           1  read in
    real space projection operators read in
  non local Contribution for L=           1  read in
    real space projection operators read in
  non local Contribution for L=           2  read in
    real space projection operators read in
  non local Contribution for L=           2  read in
    real space projection operators read in
    PAW grid and wavefunctions read in
 
   number of l-projection  operators is LMAX  =           8
   number of lm-projection operators is LMMAX =          22
 
 Optimization of the real space projectors (new method)

 maximal supplied QI-value         = 19.84
 optimisation between [QCUT,QGAM] = [ 12.50, 25.00] = [ 43.76,175.03] Ry 
 Optimized for a Real-space Cutoff    1.31 Angstroem

   l    n(q)    QCUT    max X(q) W(low)/X(q) W(high)/X(q)  e(spline) 
   0     10    12.501     2.300    0.65E-05    0.25E-06    0.79E-07
   0     10    12.501     7.576    0.25E-04    0.52E-05    0.18E-06
   0     10    12.501     1.388    0.34E-04    0.75E-05    0.48E-06
   1      9    12.501    11.002    0.11E-03    0.24E-03    0.54E-06
   1      9    12.501    14.537    0.90E-04    0.23E-03    0.70E-06
   1      9    12.501     3.893    0.34E-04    0.51E-04    0.68E-06
   2      9    12.501    14.869    0.32E-03    0.35E-03    0.49E-06
   2      9    12.501     7.291    0.12E-03    0.20E-03    0.30E-06
   2      9    12.501     6.907    0.35E-03    0.37E-03    0.52E-06
   3      8    12.501    10.598    0.33E-03    0.15E-03    0.57E-06
   3      8    12.501     2.997    0.28E-03    0.16E-03    0.51E-06
 Optimization of the real space projectors (new method)

 maximal supplied QI-value         = 23.62
 optimisation between [QCUT,QGAM] = [ 12.52, 25.04] = [ 43.89,175.56] Ry 
 Optimized for a Real-space Cutoff    1.35 Angstroem

   l    n(q)    QCUT    max X(q) W(low)/X(q) W(high)/X(q)  e(spline) 
   0     10    12.519   116.464    0.13E-03    0.15E-03    0.46E-05
   0     10    12.519   116.329    0.13E-03    0.15E-03    0.44E-05
   0     10    12.519     0.942    0.35E-04    0.90E-04    0.23E-05
   1     10    12.519   133.003    0.28E-03    0.77E-04    0.26E-05
   1     10    12.519   116.443    0.28E-03    0.76E-04    0.26E-05
   1     10    12.519     2.481    0.45E-03    0.95E-04    0.45E-05
   2      9    12.519     2.237    0.21E-04    0.33E-04    0.21E-06
   2      9    12.519     2.497    0.16E-03    0.12E-03    0.32E-06
  PAW_PBE Ni_sv_GW 05Dec2013            :
 energy of atom  1       EATOM=-4642.8712
 kinetic energy error for atom=    0.0555 (will be added to EATOM!!)
  PAW_PBE O_GW 19Mar2012                :
 energy of atom  2       EATOM= -432.3788
 kinetic energy error for atom=    0.0188 (will be added to EATOM!!)
 
 
 POSCAR: NiO                                     
  positions in direct lattice
  No initial velocities read in
 exchange correlation table for  LEXCH =        8
   RHO(1)=    0.500       N(1)  =     2000
   RHO(2)=  100.500       N(2)  =     4000
 


--------------------------------------------------------------------------------------------------------


 ion  position               nearest neighbor table
   1  0.000  0.000  0.000-  33 2.09  37 2.09  49 2.09  50 2.09  57 2.09  59 2.09
   2  0.000  0.000  0.500-  34 2.09  38 2.09  49 2.09  50 2.09  58 2.09  60 2.09
   3  0.000  0.500  0.000-  35 2.09  39 2.09  51 2.09  52 2.09  57 2.09  59 2.09
   4  0.000  0.500  0.500-  36 2.09  40 2.09  51 2.09  52 2.09  58 2.09  60 2.09
   5  0.500  0.000  0.000-  33 2.09  37 2.09  53 2.09  54 2.09  61 2.09  63 2.09
   6  0.500  0.000  0.500-  34 2.09  38 2.09  53 2.09  54 2.09  62 2.09  64 2.09
   7  0.500  0.500  0.000-  35 2.09  39 2.09  55 2.09  56 2.09  61 2.09  63 2.09
   8  0.500  0.500  0.500-  36 2.09  40 2.09  55 2.09  56 2.09  62 2.09  64 2.09
   9  0.000  0.250  0.250-  41 2.09  45 2.09  49 2.09  51 2.09  57 2.09  58 2.09
  10  0.000  0.250  0.750-  42 2.09  46 2.09  50 2.09  52 2.09  57 2.09  58 2.09
  11  0.000  0.750  0.250-  43 2.09  47 2.09  49 2.09  51 2.09  59 2.09  60 2.09
  12  0.000  0.750  0.750-  44 2.09  48 2.09  50 2.09  52 2.09  59 2.09  60 2.09
  13  0.500  0.250  0.250-  41 2.09  45 2.09  53 2.09  55 2.09  61 2.09  62 2.09
  14  0.500  0.250  0.750-  42 2.09  46 2.09  54 2.09  56 2.09  61 2.09  62 2.09
  15  0.500  0.750  0.250-  43 2.09  47 2.09  53 2.09  55 2.09  63 2.09  64 2.09
  16  0.500  0.750  0.750-  44 2.09  48 2.09  54 2.09  56 2.09  63 2.09  64 2.09
  17  0.250  0.000  0.250-  33 2.09  34 2.09  41 2.09  43 2.09  49 2.09  53 2.09
  18  0.250  0.000  0.750-  33 2.09  34 2.09  42 2.09  44 2.09  50 2.09  54 2.09
  19  0.250  0.500  0.250-  35 2.09  36 2.09  41 2.09  43 2.09  51 2.09  55 2.09
  20  0.250  0.500  0.750-  35 2.09  36 2.09  42 2.09  44 2.09  52 2.09  56 2.09
  21  0.750  0.000  0.250-  37 2.09  38 2.09  45 2.09  47 2.09  49 2.09  53 2.09
  22  0.750  0.000  0.750-  37 2.09  38 2.09  46 2.09  48 2.09  50 2.09  54 2.09
  23  0.750  0.500  0.250-  39 2.09  40 2.09  45 2.09  47 2.09  51 2.09  55 2.09
  24  0.750  0.500  0.750-  39 2.09  40 2.09  46 2.09  48 2.09  52 2.09  56 2.09
  25  0.250  0.250  0.000-  33 2.09  35 2.09  41 2.09  42 2.09  57 2.09  61 2.09
  26  0.250  0.250  0.500-  34 2.09  36 2.09  41 2.09  42 2.09  58 2.09  62 2.09
  27  0.250  0.750  0.000-  33 2.09  35 2.09  43 2.09  44 2.09  59 2.09  63 2.09
  28  0.250  0.750  0.500-  34 2.09  36 2.09  43 2.09  44 2.09  60 2.09  64 2.09
  29  0.750  0.250  0.000-  37 2.09  39 2.09  45 2.09  46 2.09  57 2.09  61 2.09
  30  0.750  0.250  0.500-  38 2.09  40 2.09  45 2.09  46 2.09  58 2.09  62 2.09
  31  0.750  0.750  0.000-  37 2.09  39 2.09  47 2.09  48 2.09  59 2.09  63 2.09
  32  0.750  0.750  0.500-  38 2.09  40 2.09  47 2.09  48 2.09  60 2.09  64 2.09
  33  0.250  0.000  0.000-   1 2.09   5 2.09  17 2.09  18 2.09  25 2.09  27 2.09
  34  0.250  0.000  0.500-   2 2.09   6 2.09  17 2.09  18 2.09  26 2.09  28 2.09
  35  0.250  0.500  0.000-   3 2.09   7 2.09  19 2.09  20 2.09  25 2.09  27 2.09
  36  0.250  0.500  0.500-   4 2.09   8 2.09  19 2.09  20 2.09  26 2.09  28 2.09
  37  0.750  0.000  0.000-   1 2.09   5 2.09  21 2.09  22 2.09  29 2.09  31 2.09
  38  0.750  0.000  0.500-   2 2.09   6 2.09  21 2.09  22 2.09  30 2.09  32 2.09
  39  0.750  0.500  0.000-   3 2.09   7 2.09  23 2.09  24 2.09  29 2.09  31 2.09
  40  0.750  0.500  0.500-   4 2.09   8 2.09  23 2.09  24 2.09  30 2.09  32 2.09
  41  0.250  0.250  0.250-   9 2.09  13 2.09  17 2.09  19 2.09  25 2.09  26 2.09
  42  0.250  0.250  0.750-  10 2.09  14 2.09  18 2.09  20 2.09  25 2.09  26 2.09
  43  0.250  0.750  0.250-  11 2.09  15 2.09  17 2.09  19 2.09  27 2.09  28 2.09
  44  0.250  0.750  0.750-  12 2.09  16 2.09  18 2.09  20 2.09  27 2.09  28 2.09
  45  0.750  0.250  0.250-   9 2.09  13 2.09  21 2.09  23 2.09  29 2.09  30 2.09
  46  0.750  0.250  0.750-  10 2.09  14 2.09  22 2.09  24 2.09  29 2.09  30 2.09
  47  0.750  0.750  0.250-  11 2.09  15 2.09  21 2.09  23 2.09  31 2.09  32 2.09
  48  0.750  0.750  0.750-  12 2.09  16 2.09  22 2.09  24 2.09  31 2.09  32 2.09
  49  0.000  0.000  0.250-   1 2.09   2 2.09   9 2.09  11 2.09  17 2.09  21 2.09
  50  0.000  0.000  0.750-   1 2.09   2 2.09  10 2.09  12 2.09  18 2.09  22 2.09
  51  0.000  0.500  0.250-   3 2.09   4 2.09   9 2.09  11 2.09  19 2.09  23 2.09
  52  0.000  0.500  0.750-   3 2.09   4 2.09  10 2.09  12 2.09  20 2.09  24 2.09
  53  0.500  0.000  0.250-   5 2.09   6 2.09  13 2.09  15 2.09  17 2.09  21 2.09
  54  0.500  0.000  0.750-   5 2.09   6 2.09  14 2.09  16 2.09  18 2.09  22 2.09
  55  0.500  0.500  0.250-   7 2.09   8 2.09  13 2.09  15 2.09  19 2.09  23 2.09
  56  0.500  0.500  0.750-   7 2.09   8 2.09  14 2.09  16 2.09  20 2.09  24 2.09
  57  0.000  0.250  0.000-   1 2.09   3 2.09   9 2.09  10 2.09  25 2.09  29 2.09
  58  0.000  0.250  0.500-   2 2.09   4 2.09   9 2.09  10 2.09  26 2.09  30 2.09
  59  0.000  0.750  0.000-   1 2.09   3 2.09  11 2.09  12 2.09  27 2.09  31 2.09
  60  0.000  0.750  0.500-   2 2.09   4 2.09  11 2.09  12 2.09  28 2.09  32 2.09
  61  0.500  0.250  0.000-   5 2.09   7 2.09  13 2.09  14 2.09  25 2.09  29 2.09
  62  0.500  0.250  0.500-   6 2.09   8 2.09  13 2.09  14 2.09  26 2.09  30 2.09
  63  0.500  0.750  0.000-   5 2.09   7 2.09  15 2.09  16 2.09  27 2.09  31 2.09
  64  0.500  0.750  0.500-   6 2.09   8 2.09  15 2.09  16 2.09  28 2.09  32 2.09
 
  LATTYP: Found a simple cubic cell.
 ALAT       =     8.3731650000
  
  Lattice vectors:
  
 A1 = (   8.3731650000,   0.0000000000,   0.0000000000)
 A2 = (   0.0000000000,   8.3731650000,   0.0000000000)
 A3 = (   0.0000000000,   0.0000000000,   8.3731650000)


Analysis of symmetry for initial positions (statically):
=====================================================================
 Subroutine PRICEL returns following result:
 
  LATTYP: Found a face centered cubic cell.
 ALAT       =     4.1865825000
  
  Lattice vectors:
  
 A1 = (   2.0932912500,   2.0932912500,   0.0000000000)
 A2 = (   2.0932912500,   0.0000000000,  -2.0932912500)
 A3 = (   0.0000000000,   2.0932912500,  -2.0932912500)
 
  32 primitive cells build up your supercell.
 

 Routine SETGRP: Setting up the symmetry group for a 
 simple cubic supercell.


 Subroutine GETGRP returns: Found 48 space group operations
 (whereof 48 operations were pure point group operations)
 out of a pool of 48 trial point group operations.


The static configuration has the point symmetry O_h .


Analysis of symmetry for dynamics (positions and initial velocities):
=====================================================================
 Subroutine PRICEL returns following result:
 
  LATTYP: Found a face centered cubic cell.
 ALAT       =     4.1865825000
  
  Lattice vectors:
  
 A1 = (   2.0932912500,   2.0932912500,   0.0000000000)
 A2 = (   2.0932912500,   0.0000000000,  -2.0932912500)
 A3 = (   0.0000000000,   2.0932912500,  -2.0932912500)
 
  32 primitive cells build up your supercell.
 

 Routine SETGRP: Setting up the symmetry group for a 
 simple cubic supercell.


 Subroutine GETGRP returns: Found 48 space group operations
 (whereof 48 operations were pure point group operations)
 out of a pool of 48 trial point group operations.


The dynamic configuration has the point symmetry O_h .


Analysis of structural, dynamic, and magnetic symmetry:
=====================================================================
 Subroutine PRICEL returns following result:
 
  LATTYP: Found a face centered cubic cell.
 ALAT       =     4.1865825000
  
  Lattice vectors:
  
 A1 = (   2.0932912500,   2.0932912500,   0.0000000000)
 A2 = (   2.0932912500,   0.0000000000,  -2.0932912500)
 A3 = (   0.0000000000,   2.0932912500,  -2.0932912500)
 
  32 primitive cells build up your supercell.
 

 Routine SETGRP: Setting up the symmetry group for a 
 simple cubic supercell.


 Subroutine GETGRP returns: Found 48 space group operations
 (whereof 48 operations were pure point group operations)
 out of a pool of 48 trial point group operations.


The magnetic configuration has the point symmetry O_h .


 Subroutine INISYM returns: Found 48 space group operations
 (whereof 48 operations are pure point group operations),
 and found    32 'primitive' translations

 
 
 KPOINTS: k-points                                

Automatic generation of k-mesh.
Space group operators:
 irot       det(A)        alpha          n_x          n_y          n_z        tau_x        tau_y        tau_z
    1     1.000000     0.000000     1.000000     0.000000     0.000000     0.000000     0.000000     0.000000
    2    -1.000000     0.000000     1.000000     0.000000     0.000000     0.000000     0.000000     0.000000
    3     1.000000   120.000000    -0.577350    -0.577350    -0.577350     0.000000     0.000000     0.000000
    4    -1.000000   120.000000    -0.577350    -0.577350    -0.577350     0.000000     0.000000     0.000000
    5     1.000000   120.000000     0.577350     0.577350     0.577350     0.000000     0.000000     0.000000
    6    -1.000000   120.000000     0.577350     0.577350     0.577350     0.000000     0.000000     0.000000
    7     1.000000    90.000000     0.000000     0.000000    -1.000000     0.000000     0.000000     0.000000
    8    -1.000000    90.000000     0.000000     0.000000    -1.000000     0.000000     0.000000     0.000000
    9     1.000000   180.000000     0.000000     0.707107     0.707107     0.000000     0.000000     0.000000
   10    -1.000000   180.000000     0.000000     0.707107     0.707107     0.000000     0.000000     0.000000
   11     1.000000    90.000000     0.000000     1.000000     0.000000     0.000000     0.000000     0.000000
   12    -1.000000    90.000000     0.000000     1.000000     0.000000     0.000000     0.000000     0.000000
   13     1.000000   180.000000     0.000000     0.000000     1.000000     0.000000     0.000000     0.000000
   14    -1.000000   180.000000     0.000000     0.000000     1.000000     0.000000     0.000000     0.000000
   15     1.000000   120.000000    -0.577350     0.577350     0.577350     0.000000     0.000000     0.000000
   16    -1.000000   120.000000    -0.577350     0.577350     0.577350     0.000000     0.000000     0.000000
   17     1.000000   120.000000    -0.577350     0.577350    -0.577350     0.000000     0.000000     0.000000
   18    -1.000000   120.000000    -0.577350     0.577350    -0.577350     0.000000     0.000000     0.000000
   19     1.000000    90.000000     0.000000     0.000000     1.000000     0.000000     0.000000     0.000000
   20    -1.000000    90.000000     0.000000     0.000000     1.000000     0.000000     0.000000     0.000000
   21     1.000000    90.000000    -1.000000     0.000000     0.000000     0.000000     0.000000     0.000000
   22    -1.000000    90.000000    -1.000000     0.000000     0.000000     0.000000     0.000000     0.000000
   23     1.000000   180.000000     0.707107     0.000000     0.707107     0.000000     0.000000     0.000000
   24    -1.000000   180.000000     0.707107     0.000000     0.707107     0.000000     0.000000     0.000000
   25     1.000000   120.000000     0.577350    -0.577350     0.577350     0.000000     0.000000     0.000000
   26    -1.000000   120.000000     0.577350    -0.577350     0.577350     0.000000     0.000000     0.000000
   27     1.000000   120.000000    -0.577350    -0.577350     0.577350     0.000000     0.000000     0.000000
   28    -1.000000   120.000000    -0.577350    -0.577350     0.577350     0.000000     0.000000     0.000000
   29     1.000000   180.000000     1.000000     0.000000     0.000000     0.000000     0.000000     0.000000
   30    -1.000000   180.000000     1.000000     0.000000     0.000000     0.000000     0.000000     0.000000
   31     1.000000    90.000000     0.000000    -1.000000     0.000000     0.000000     0.000000     0.000000
   32    -1.000000    90.000000     0.000000    -1.000000     0.000000     0.000000     0.000000     0.000000
   33     1.000000   180.000000     0.707107     0.707107     0.000000     0.000000     0.000000     0.000000
   34    -1.000000   180.000000     0.707107     0.707107     0.000000     0.000000     0.000000     0.000000
   35     1.000000    90.000000     1.000000     0.000000     0.000000     0.000000     0.000000     0.000000
   36    -1.000000    90.000000     1.000000     0.000000     0.000000     0.000000     0.000000     0.000000
   37     1.000000   120.000000     0.577350    -0.577350    -0.577350     0.000000     0.000000     0.000000
   38    -1.000000   120.000000     0.577350    -0.577350    -0.577350     0.000000     0.000000     0.000000
   39     1.000000   180.000000     0.000000     1.000000     0.000000     0.000000     0.000000     0.000000
   40    -1.000000   180.000000     0.000000     1.000000     0.000000     0.000000     0.000000     0.000000
   41     1.000000   120.000000     0.577350     0.577350    -0.577350     0.000000     0.000000     0.000000
   42    -1.000000   120.000000     0.577350     0.577350    -0.577350     0.000000     0.000000     0.000000
   43     1.000000   180.000000     0.000000    -0.707107     0.707107     0.000000     0.000000     0.000000
   44    -1.000000   180.000000     0.000000    -0.707107     0.707107     0.000000     0.000000     0.000000
   45     1.000000   180.000000     0.707107    -0.707107     0.000000     0.000000     0.000000     0.000000
   46    -1.000000   180.000000     0.707107    -0.707107     0.000000     0.000000     0.000000     0.000000
   47     1.000000   180.000000     0.707107     0.000000    -0.707107     0.000000     0.000000     0.000000
   48    -1.000000   180.000000     0.707107     0.000000    -0.707107     0.000000     0.000000     0.000000
 
 Subroutine IBZKPT returns following result:
 ===========================================
 
 Found      4 irreducible k-points:
 
 Following reciprocal coordinates:
            Coordinates               Weight
  0.000000  0.000000  0.000000      1.000000
  0.333333  0.000000  0.000000      6.000000
  0.333333  0.333333  0.000000     12.000000
  0.333333  0.333333  0.333333      8.000000
 
 Following cartesian coordinates:
            Coordinates               Weight
  0.000000  0.000000  0.000000      1.000000
  0.333333  0.000000  0.000000      6.000000
  0.333333  0.333333  0.000000     12.000000
  0.333333  0.333333  0.333333      8.000000
 


--------------------------------------------------------------------------------------------------------




 Dimension of arrays:
   k-points           NKPTS =      4   k-points in BZ     NKDIM =      4   number of bands    NBANDS=    492
   number of dos      NEDOS =    301   number of ions     NIONS =     64
   non local maximal  LDIM  =     11   non local SUM 2l+1 LMDIM =     41
   total plane-waves  NPLWV = 125000
   max r-space proj   IRMAX =   2224   max aug-charges    IRDMAX=   4900
   dimension x,y,z NGX =    50 NGY =   50 NGZ =   50
   dimension x,y,z NGXF=   100 NGYF=  100 NGZF=  100
   support grid    NGXF=   100 NGYF=  100 NGZF=  100
   ions per type =              32  32
   NGX,Y,Z   is equivalent  to a cutoff of   9.93,  9.93,  9.93 a.u.
   NGXF,Y,Z  is equivalent  to a cutoff of  19.85, 19.85, 19.85 a.u.

 SYSTEM =  NiO                                     
 POSCAR =  NiO                                     

 Startparameter for this run:
   NWRITE =      2    write-flag & timer
   PREC   = normal    normal or accurate (medium, high low for compatibility)
   ISTART =      1    job   : 0-new  1-cont  2-samecut
   ICHARG =      1    charge: 1-file 2-atom 10-const
   ISPIN  =      2    spin polarized calculation?
   LNONCOLLINEAR =      F non collinear calculations
   LSORBIT =      F    spin-orbit coupling
   INIWAV =      1    electr: 0-lowe 1-rand  2-diag
   LASPH  =      F    aspherical Exc in radial PAW
   METAGGA=      F    non-selfconsistent MetaGGA calc.

 Electronic Relaxation 1
   ENCUT  =  600.0 eV  44.10 Ry    6.64 a.u.  16.72 16.72 16.72*2*pi/ulx,y,z
   ENINI  =  600.0     initial cutoff
   ENAUG  = 1200.0 eV  augmentation charge cutoff
   NELM   =    100;   NELMIN=  2; NELMDL=  0     # of ELM steps 
   EDIFF  = 0.1E-05   stopping-criterion for ELM
   LREAL  =      T    real-space projection
   NLSPLINE    = F    spline interpolate recip. space projectors
   LCOMPAT=      F    compatible to vasp.4.4
   GGA_COMPAT  = T    GGA compatible to vasp.4.4-vasp.4.6
   LMAXPAW     = -100 max onsite density
   LMAXMIX     =    4 max onsite mixed and CHGCAR
   VOSKOWN=      0    Vosko Wilk Nusair interpolation
   ROPT   =   -0.00050  -0.00050
 Ionic relaxation
   EDIFFG = -.1E-03   stopping-criterion for IOM
   NSW    =      0    number of steps for IOM
   NBLOCK =      1;   KBLOCK =      1    inner block; outer block 
   IBRION =     -1    ionic relax: 0-MD 1-quasi-New 2-CG
   NFREE  =      1    steps in history (QN), initial steepest desc. (CG)
   ISIF   =      2    stress and relaxation
   IWAVPR =     10    prediction:  0-non 1-charg 2-wave 3-comb
   ISYM   =      2    0-nonsym 1-usesym 2-fastsym
   LCORR  =      T    Harris-Foulkes like correction to forces

   POTIM  = 0.2000    time-step for ionic-motion
   TEIN   =    0.0    initial temperature
   TEBEG  =    0.0;   TEEND  =   0.0 temperature during run
   SMASS  =  -3.00    Nose mass-parameter (am)
   estimated Nose-frequenzy (Omega)   =  0.10E-29 period in steps =****** mass=  -0.160E-26a.u.
   SCALEE = 1.0000    scale energy and forces
   NPACO  =    256;   APACO  = 16.0  distance and # of slots for P.C.
   PSTRESS=    0.0 pullay stress

  Mass of Ions in am
   POMASS =  58.69 16.00
  Ionic Valenz
   ZVAL   =  18.00  6.00
  Atomic Wigner-Seitz radii
   RWIGS  =  -1.00 -1.00
  virtual crystal weights 
   VCA    =   1.00  1.00
   NELECT =     768.0000    total number of electrons
   NUPDOWN=      -1.0000    fix difference up-down

 DOS related values:
   EMIN   =  10.00;   EMAX   =-10.00  energy-range for DOS
   EFERMI =   0.00
   ISMEAR =     0;   SIGMA  =   0.00  broadening in eV -4-tet -1-fermi 0-gaus

 Electronic relaxation 2 (details)
   IALGO  =     38    algorithm
   LDIAG  =      T    sub-space diagonalisation (order eigenvalues)
   LSUBROT=      F    optimize rotation matrix (better conditioning)
   TURBO    =      0    0=normal 1=particle mesh
   IRESTART =      0    0=no restart 2=restart with 2 vectors
   NREBOOT  =      0    no. of reboots
   NMIN     =      0    reboot dimension
   EREF     =   0.00    reference energy to select bands
   IMIX   =      4    mixing-type and parameters
     AMIX     =   0.40;   BMIX     =  1.00
     AMIX_MAG =   1.60;   BMIX_MAG =  1.00
     AMIN     =   0.10
     WC   =   100.;   INIMIX=   1;  MIXPRE=   1;  MAXMIX= -45

 Intra band minimization:
   WEIMIN = 0.0000     energy-eigenvalue tresh-hold
   EBREAK =  0.51E-09  absolut break condition
   DEPER  =   0.30     relativ break condition  

   TIME   =   0.40     timestep for ELM

  volume/ion in A,a.u.               =       9.17        61.90
  Fermi-wavevector in a.u.,A,eV,Ry     =   1.790491  3.383538 43.618369  3.205860
  Thomas-Fermi vector in A             =   2.853251
 
 Write flags
   LWAVE        =      T    write WAVECAR
   LDOWNSAMPLE  =      F    k-point downsampling of WAVECAR
   LCHARG       =      T    write CHGCAR
   LVTOT        =      F    write LOCPOT, total local potential
   LVHAR        =      F    write LOCPOT, Hartree potential only
   LELF         =      F    write electronic localiz. function (ELF)
   LORBIT       =     11    0 simple, 1 ext, 2 COOP (PROOUT), +10 PAW based schemes


 Dipole corrections
   LMONO  =      F    monopole corrections only (constant potential shift)
   LDIPOL =      F    correct potential (dipole corrections)
   IDIPOL =      0    1-x, 2-y, 3-z, 4-all directions 
   EPSILON=  1.0000000 bulk dielectric constant

 Exchange correlation treatment:
   GGA     =    --    GGA type
   LEXCH   =     8    internal setting for exchange type
   VOSKOWN=      0    Vosko Wilk Nusair interpolation
   LHFCALC =     F    Hartree Fock is set to
   LHFONE  =     F    Hartree Fock one center treatment
   AEXX    =    0.0000 exact exchange contribution

 Linear response parameters
   LEPSILON=     F    determine dielectric tensor
   LRPA    =     F    only Hartree local field effects (RPA)
   LNABLA  =     F    use nabla operator in PAW spheres
   LVEL    =     F    velocity operator in full k-point grid
   LINTERFAST=   F  fast interpolation
   KINTER  =     0    interpolate to denser k-point grid
   CSHIFT  =0.1000    complex shift for real part using Kramers Kronig
   OMEGAMAX=  -1.0    maximum frequency
   DEG_THRESHOLD= 0.2000000E-02 threshold for treating states as degnerate
   RTIME   =   -0.100 relaxation time in fs
  (WPLASMAI=    0.000 imaginary part of plasma frequency in eV, 0.658/RTIME)
   DFIELD  = 0.0000000 0.0000000 0.0000000 field for delta impulse in time
 
 Orbital magnetization related:
   ORBITALMAG=     F  switch on orbital magnetization
   LCHIMAG   =     F  perturbation theory with respect to B field
   DQ        =  0.001000  dq finite difference perturbation B field
   LLRAUG    =     F  two centre corrections for induced B field



--------------------------------------------------------------------------------------------------------


 Static calculation
 charge density and potential will be updated during run
 spin polarized calculation
 Variant of blocked Davidson
 Davidson routine will perform the subspace rotation
 perform sub-space diagonalisation
    after iterative eigenvector-optimisation
 modified Broyden-mixing scheme, WC =      100.0
 initial mixing is a Kerker type mixing with AMIX =  0.4000 and BMIX =      1.0000
 Hartree-type preconditioning will be used
 using additional bands          108
 real space projection scheme for non local part
 use partial core corrections
 calculate Harris-corrections to forces 
   (improved forces if not selfconsistent)
 use gradient corrections 
 use of overlap-Matrix (Vanderbilt PP)
 Gauss-broadening in eV      SIGMA  =   0.00


--------------------------------------------------------------------------------------------------------


  energy-cutoff  :      600.00
  volume of cell :      587.04
      direct lattice vectors                 reciprocal lattice vectors
     8.373165000  0.000000000  0.000000000     0.119429153  0.000000000  0.000000000
     0.000000000  8.373165000  0.000000000     0.000000000  0.119429153  0.000000000
     0.000000000  0.000000000  8.373165000     0.000000000  0.000000000  0.119429153

  length of vectors
     8.373165000  8.373165000  8.373165000     0.119429153  0.119429153  0.119429153


 
 old parameters found on file WAVECAR:
  energy-cutoff  :      600.00
  volume of cell :      576.56
      direct lattice vectors                 reciprocal lattice vectors
     8.323012000  0.000000000  0.000000000     0.120148812  0.000000000  0.000000000
     0.000000000  8.323012000  0.000000000     0.000000000  0.120148812  0.000000000
     0.000000000  0.000000000  8.323012000     0.000000000  0.000000000  0.120148812

  length of vectors

 
 k-points in units of 2pi/SCALE and weight: k-points                                
   0.00000000  0.00000000  0.00000000       0.037
   0.33333333  0.00000000  0.00000000       0.222
   0.33333333  0.33333333  0.00000000       0.444
   0.33333333  0.33333333  0.33333333       0.296
 
 k-points in reciprocal lattice and weights: k-points                                
   0.00000000  0.00000000  0.00000000       0.037
   0.33333333  0.00000000  0.00000000       0.222
   0.33333333  0.33333333  0.00000000       0.444
   0.33333333  0.33333333  0.33333333       0.296
 
 position of ions in fractional coordinates (direct lattice) 
   0.00000000  0.00000000  0.00000000
   0.00000000  0.00000000  0.50000000
   0.00000000  0.50000000  0.00000000
   0.00000000  0.50000000  0.50000000
   0.50000000  0.00000000  0.00000000
   0.50000000  0.00000000  0.50000000
   0.50000000  0.50000000  0.00000000
   0.50000000  0.50000000  0.50000000
   0.00000000  0.25000000  0.25000000
   0.00000000  0.25000000  0.75000000
   0.00000000  0.75000000  0.25000000
   0.00000000  0.75000000  0.75000000
   0.50000000  0.25000000  0.25000000
   0.50000000  0.25000000  0.75000000
   0.50000000  0.75000000  0.25000000
   0.50000000  0.75000000  0.75000000
   0.25000000  0.00000000  0.25000000
   0.25000000  0.00000000  0.75000000
   0.25000000  0.50000000  0.25000000
   0.25000000  0.50000000  0.75000000
   0.75000000  0.00000000  0.25000000
   0.75000000  0.00000000  0.75000000
   0.75000000  0.50000000  0.25000000
   0.75000000  0.50000000  0.75000000
   0.25000000  0.25000000  0.00000000
   0.25000000  0.25000000  0.50000000
   0.25000000  0.75000000  0.00000000
   0.25000000  0.75000000  0.50000000
   0.75000000  0.25000000  0.00000000
   0.75000000  0.25000000  0.50000000
   0.75000000  0.75000000  0.00000000
   0.75000000  0.75000000  0.50000000
   0.25000000  0.00000000  0.00000000
   0.25000000  0.00000000  0.50000000
   0.25000000  0.50000000  0.00000000
   0.25000000  0.50000000  0.50000000
   0.75000000  0.00000000  0.00000000
   0.75000000  0.00000000  0.50000000
   0.75000000  0.50000000  0.00000000
   0.75000000  0.50000000  0.50000000
   0.25000000  0.25000000  0.25000000
   0.25000000  0.25000000  0.75000000
   0.25000000  0.75000000  0.25000000
   0.25000000  0.75000000  0.75000000
   0.75000000  0.25000000  0.25000000
   0.75000000  0.25000000  0.75000000
   0.75000000  0.75000000  0.25000000
   0.75000000  0.75000000  0.75000000
   0.00000000  0.00000000  0.25000000
   0.00000000  0.00000000  0.75000000
   0.00000000  0.50000000  0.25000000
   0.00000000  0.50000000  0.75000000
   0.50000000  0.00000000  0.25000000
   0.50000000  0.00000000  0.75000000
   0.50000000  0.50000000  0.25000000
   0.50000000  0.50000000  0.75000000
   0.00000000  0.25000000  0.00000000
   0.00000000  0.25000000  0.50000000
   0.00000000  0.75000000  0.00000000
   0.00000000  0.75000000  0.50000000
   0.50000000  0.25000000  0.00000000
   0.50000000  0.25000000  0.50000000
   0.50000000  0.75000000  0.00000000
   0.50000000  0.75000000  0.50000000
 
 position of ions in cartesian coordinates  (Angst):
   0.00000000  0.00000000  0.00000000
   0.00000000  0.00000000  4.18658250
   0.00000000  4.18658250  0.00000000
   0.00000000  4.18658250  4.18658250
   4.18658250  0.00000000  0.00000000
   4.18658250  0.00000000  4.18658250
   4.18658250  4.18658250  0.00000000
   4.18658250  4.18658250  4.18658250
   0.00000000  2.09329125  2.09329125
   0.00000000  2.09329125  6.27987375
   0.00000000  6.27987375  2.09329125
   0.00000000  6.27987375  6.27987375
   4.18658250  2.09329125  2.09329125
   4.18658250  2.09329125  6.27987375
   4.18658250  6.27987375  2.09329125
   4.18658250  6.27987375  6.27987375
   2.09329125  0.00000000  2.09329125
   2.09329125  0.00000000  6.27987375
   2.09329125  4.18658250  2.09329125
   2.09329125  4.18658250  6.27987375
   6.27987375  0.00000000  2.09329125
   6.27987375  0.00000000  6.27987375
   6.27987375  4.18658250  2.09329125
   6.27987375  4.18658250  6.27987375
   2.09329125  2.09329125  0.00000000
   2.09329125  2.09329125  4.18658250
   2.09329125  6.27987375  0.00000000
   2.09329125  6.27987375  4.18658250
   6.27987375  2.09329125  0.00000000
   6.27987375  2.09329125  4.18658250
   6.27987375  6.27987375  0.00000000
   6.27987375  6.27987375  4.18658250
   2.09329125  0.00000000  0.00000000
   2.09329125  0.00000000  4.18658250
   2.09329125  4.18658250  0.00000000
   2.09329125  4.18658250  4.18658250
   6.27987375  0.00000000  0.00000000
   6.27987375  0.00000000  4.18658250
   6.27987375  4.18658250  0.00000000
   6.27987375  4.18658250  4.18658250
   2.09329125  2.09329125  2.09329125
   2.09329125  2.09329125  6.27987375
   2.09329125  6.27987375  2.09329125
   2.09329125  6.27987375  6.27987375
   6.27987375  2.09329125  2.09329125
   6.27987375  2.09329125  6.27987375
   6.27987375  6.27987375  2.09329125
   6.27987375  6.27987375  6.27987375
   0.00000000  0.00000000  2.09329125
   0.00000000  0.00000000  6.27987375
   0.00000000  4.18658250  2.09329125
   0.00000000  4.18658250  6.27987375
   4.18658250  0.00000000  2.09329125
   4.18658250  0.00000000  6.27987375
   4.18658250  4.18658250  2.09329125
   4.18658250  4.18658250  6.27987375
   0.00000000  2.09329125  0.00000000
   0.00000000  2.09329125  4.18658250
   0.00000000  6.27987375  0.00000000
   0.00000000  6.27987375  4.18658250
   4.18658250  2.09329125  0.00000000
   4.18658250  2.09329125  4.18658250
   4.18658250  6.27987375  0.00000000
   4.18658250  6.27987375  4.18658250
 


--------------------------------------------------------------------------------------------------------


 k-point  1 :   0.0000 0.0000 0.0000  plane waves:   19549
 k-point  2 :   0.3333 0.0000 0.0000  plane waves:   19594
 k-point  3 :   0.3333 0.3333 0.0000  plane waves:   19586
 k-point  4 :   0.3333 0.3333 0.3333  plane waves:   19603

 maximum and minimum number of plane-waves per node :     19603    19549

 maximum number of plane-waves:     19603
 maximum index in each direction: 
   IXMAX=   16   IYMAX=   16   IZMAX=   16
   IXMIN=  -17   IYMIN=  -17   IZMIN=  -17


 serial   3D FFT for wavefunctions
 parallel 3D FFT for charge:
    minimum data exchange during FFTs selected (reduces bandwidth)


 total amount of memory used by VASP MPI-rank0  1566004. kBytes
=======================================================================

   base      :      30000. kBytes
   nonlr-proj:      38118. kBytes
   fftplans  :      34720. kBytes
   grid      :      91360. kBytes
   one-center:      10328. kBytes
   wavefun   :    1361478. kBytes
 
     INWAV:  cpu time    1.2124: real time    1.2119
 Broyden mixing: mesh for mixing (old mesh)
   NGX = 33   NGY = 33   NGZ = 33
  (NGX  =100   NGY  =100   NGZ  =100)
  gives a total of  35937 points

 initial charge density was supplied:
 number of electron     768.0003318 magnetization      64.0000000
 keeping initial charge density in first step


--------------------------------------------------------------------------------------------------------


 Maximum index for non-local projection operator         2176
 Maximum index for augmentation-charges         4553 (set IRDMAX)


--------------------------------------------------------------------------------------------------------


 First call to EWALD:  gamma=   0.212
 Maximum number of real-space cells 3x 3x 3
 Maximum number of reciprocal cells 3x 3x 3

    FEWALD:  cpu time    0.0120: real time    0.0120


----------------------------------------- Iteration    1(   1)  ---------------------------------------


    POTLOK:  cpu time    0.9718: real time    0.9716
    SETDIJ:  cpu time    0.3979: real time    0.3978
     EDDAV:  cpu time   11.1137: real time   11.1174
       DOS:  cpu time    0.0061: real time    0.0061
    CHARGE:  cpu time    3.1659: real time    3.1656
    MIXING:  cpu time    0.0208: real time    0.0208
    --------------------------------------------
      LOOP:  cpu time   15.6787: real time   15.6815

 eigenvalue-minimisations  :  9088
 total energy-change (2. order) :-0.3831181E+03  (-0.2134669E+02)
 number of electron     768.0004607 magnetization      52.8992759
 augmentation part      311.4829927 magnetization      37.3111586

 Broyden mixing:
  rms(total) = 0.46938E+01    rms(broyden)= 0.46856E+01
  rms(prec ) = 0.47682E+01
  weight for this iteration     100.00

 Free energy of the ion-electron system (eV)
  ---------------------------------------------------
  alpha Z        PSCENC =      5405.26752916
  Ewald energy   TEWEN  =   -103786.92559499
  -Hartree energ DENC   =    -47246.87488285
  -exchange      EXHF   =         0.00000000
  -V(xc)+E(xc)   XCENC  =      5119.55607101
  PAW double counting   =    142077.22770908  -148126.97835835
  entropy T*S    EENTRO =        -0.00014697
  eigenvalues    EBANDS =    -16230.01274705
  atomic energy  EATOM  =    162405.62235658
  Solvation  Ediel_sol  =         0.00000000
  ---------------------------------------------------
  free energy    TOTEN  =      -383.11806440 eV

  energy without entropy =     -383.11791742  energy(sigma->0) =     -383.11799091


--------------------------------------------------------------------------------------------------------




----------------------------------------- Iteration    1(   2)  ---------------------------------------


    POTLOK:  cpu time    0.9757: real time    0.9756
    SETDIJ:  cpu time    0.4097: real time    0.4095
     EDDAV:  cpu time   15.9336: real time   15.9347
       DOS:  cpu time    0.0057: real time    0.0057
    CHARGE:  cpu time    3.1657: real time    3.1653
    MIXING:  cpu time    0.0245: real time    0.0247
    --------------------------------------------
      LOOP:  cpu time   20.5154: real time   20.5161

 eigenvalue-minimisations  : 15008
 total energy-change (2. order) :-0.6584044E+01  (-0.3722199E+01)
 number of electron     768.0004394 magnetization      50.9350601
 augmentation part      309.7051761 magnetization      32.6609663

 Broyden mixing:
  rms(total) = 0.23308E+01    rms(broyden)= 0.23270E+01
  rms(prec ) = 0.23942E+01
  weight for this iteration     100.00

 eigenvalues of (default mixing * dielectric matrix)
  average eigenvalue GAMMA=   0.6827
  0.6827

 Free energy of the ion-electron system (eV)
  ---------------------------------------------------
  alpha Z        PSCENC =      5405.26752916
  Ewald energy   TEWEN  =   -103786.92559499
  -Hartree energ DENC   =    -47573.99154487
  -exchange      EXHF   =         0.00000000
  -V(xc)+E(xc)   XCENC  =      5127.33901026
  PAW double counting   =    141853.91410352  -147984.06123675
  entropy T*S    EENTRO =        -0.00015072
  eigenvalues    EBANDS =    -15836.86658106
  atomic energy  EATOM  =    162405.62235658
  Solvation  Ediel_sol  =         0.00000000
  ---------------------------------------------------
  free energy    TOTEN  =      -389.70210887 eV

  energy without entropy =     -389.70195815  energy(sigma->0) =     -389.70203351


--------------------------------------------------------------------------------------------------------




----------------------------------------- Iteration    1(   3)  ---------------------------------------


    POTLOK:  cpu time    0.9643: real time    0.9640
    SETDIJ:  cpu time    0.4075: real time    0.4075
     EDDAV:  cpu time   15.9914: real time   15.9943
       DOS:  cpu time    0.0054: real time    0.0054
    CHARGE:  cpu time    3.1709: real time    3.1707
    MIXING:  cpu time    0.0280: real time    0.0279
    --------------------------------------------
      LOOP:  cpu time   20.5681: real time   20.5703

 eigenvalue-minimisations  : 15008
 total energy-change (2. order) :-0.3433616E+01  (-0.1063372E+01)
 number of electron     768.0004432 magnetization      45.8704933
 augmentation part      310.2001993 magnetization      30.2148765

 Broyden mixing:
  rms(total) = 0.74951E+00    rms(broyden)= 0.74950E+00
  rms(prec ) = 0.82876E+00
  weight for this iteration     100.00

 eigenvalues of (default mixing * dielectric matrix)
  average eigenvalue GAMMA=   0.8642
  1.0723  0.6560

 Free energy of the ion-electron system (eV)
  ---------------------------------------------------
  alpha Z        PSCENC =      5405.26752916
  Ewald energy   TEWEN  =   -103786.92559499
  -Hartree energ DENC   =    -47634.29147152
  -exchange      EXHF   =         0.00000000
  -V(xc)+E(xc)   XCENC  =      5131.94909079
  PAW double counting   =    141494.83702914  -147612.53912426
  entropy T*S    EENTRO =        -0.00012928
  eigenvalues    EBANDS =    -15797.05541001
  atomic energy  EATOM  =    162405.62235658
  Solvation  Ediel_sol  =         0.00000000
  ---------------------------------------------------
  free energy    TOTEN  =      -393.13572440 eV

  energy without entropy =     -393.13559512  energy(sigma->0) =     -393.13565976


--------------------------------------------------------------------------------------------------------




----------------------------------------- Iteration    1(   4)  ---------------------------------------


    POTLOK:  cpu time    0.9542: real time    0.9539
    SETDIJ:  cpu time    0.4067: real time    0.4066
     EDDAV:  cpu time   14.2039: real time   14.2031
       DOS:  cpu time    0.0058: real time    0.0057
    CHARGE:  cpu time    3.1822: real time    3.1819
    MIXING:  cpu time    0.0328: real time    0.0328
    --------------------------------------------
      LOOP:  cpu time   18.7862: real time   18.7846

 eigenvalue-minimisations  : 12784
 total energy-change (2. order) :-0.9290808E-01  (-0.4195565E+00)
 number of electron     768.0004392 magnetization      44.6308693
 augmentation part      308.2313484 magnetization      29.8647561

 Broyden mixing:
  rms(total) = 0.28083E+00    rms(broyden)= 0.28063E+00
  rms(prec ) = 0.32367E+00
  weight for this iteration     100.00

 eigenvalues of (default mixing * dielectric matrix)
  average eigenvalue GAMMA=   0.9710
  1.5325  0.6902  0.6902

 Free energy of the ion-electron system (eV)
  ---------------------------------------------------
  alpha Z        PSCENC =      5405.26752916
  Ewald energy   TEWEN  =   -103786.92559499
  -Hartree energ DENC   =    -47844.90230210
  -exchange      EXHF   =         0.00000000
  -V(xc)+E(xc)   XCENC  =      5139.82923876
  PAW double counting   =    141258.10520247  -147369.41010391
  entropy T*S    EENTRO =        -0.00012937
  eigenvalues    EBANDS =    -15600.81482908
  atomic energy  EATOM  =    162405.62235658
  Solvation  Ediel_sol  =         0.00000000
  ---------------------------------------------------
  free energy    TOTEN  =      -393.22863248 eV

  energy without entropy =     -393.22850310  energy(sigma->0) =     -393.22856779


--------------------------------------------------------------------------------------------------------




----------------------------------------- Iteration    1(   5)  ---------------------------------------


    POTLOK:  cpu time    0.9641: real time    0.9640
    SETDIJ:  cpu time    0.4100: real time    0.4099
     EDDAV:  cpu time   14.2606: real time   14.2655
       DOS:  cpu time    0.0061: real time    0.0061
    CHARGE:  cpu time    3.1629: real time    3.1626
    MIXING:  cpu time    0.0359: real time    0.0358
    --------------------------------------------
      LOOP:  cpu time   18.8400: real time   18.8445

 eigenvalue-minimisations  : 12816
 total energy-change (2. order) : 0.8816532E-02  (-0.1098944E+00)
 number of electron     768.0004414 magnetization      44.1214202
 augmentation part      309.0827840 magnetization      29.3033584

 Broyden mixing:
  rms(total) = 0.16165E+00    rms(broyden)= 0.16161E+00
  rms(prec ) = 0.19303E+00
  weight for this iteration     100.00

 eigenvalues of (default mixing * dielectric matrix)
  average eigenvalue GAMMA=   0.9060
  1.6030  0.8650  0.6837  0.4724

 Free energy of the ion-electron system (eV)
  ---------------------------------------------------
  alpha Z        PSCENC =      5405.26752916
  Ewald energy   TEWEN  =   -103786.92559499
  -Hartree energ DENC   =    -47799.46507545
  -exchange      EXHF   =         0.00000000
  -V(xc)+E(xc)   XCENC  =      5138.23394979
  PAW double counting   =    141110.46910663  -147192.55025723
  entropy T*S    EENTRO =        -0.00013379
  eigenvalues    EBANDS =    -15673.87169664
  atomic energy  EATOM  =    162405.62235658
  Solvation  Ediel_sol  =         0.00000000
  ---------------------------------------------------
  free energy    TOTEN  =      -393.21981595 eV

  energy without entropy =     -393.21968215  energy(sigma->0) =     -393.21974905


--------------------------------------------------------------------------------------------------------




----------------------------------------- Iteration    1(   6)  ---------------------------------------


    POTLOK:  cpu time    0.9628: real time    0.9626
    SETDIJ:  cpu time    0.4085: real time    0.4084
     EDDAV:  cpu time   15.6041: real time   15.6088
       DOS:  cpu time    0.0059: real time    0.0059
    CHARGE:  cpu time    3.1551: real time    3.1549
    MIXING:  cpu time    0.0401: real time    0.0401
    --------------------------------------------
      LOOP:  cpu time   20.1771: real time   20.1812

 eigenvalue-minimisations  : 14464
 total energy-change (2. order) :-0.2357337E-02  (-0.1577382E-01)
 number of electron     768.0004413 magnetization      43.0217570
 augmentation part      309.1281511 magnetization      28.2478985

 Broyden mixing:
  rms(total) = 0.10483E+00    rms(broyden)= 0.10483E+00
  rms(prec ) = 0.11857E+00
  weight for this iteration     100.00

 eigenvalues of (default mixing * dielectric matrix)
  average eigenvalue GAMMA=   1.0153
  2.0114  0.8804  0.8804  0.7388  0.5655

 Free energy of the ion-electron system (eV)
  ---------------------------------------------------
  alpha Z        PSCENC =      5405.26752916
  Ewald energy   TEWEN  =   -103786.92559499
  -Hartree energ DENC   =    -47800.32498728
  -exchange      EXHF   =         0.00000000
  -V(xc)+E(xc)   XCENC  =      5137.93070278
  PAW double counting   =    141085.69874074  -147161.14212922
  entropy T*S    EENTRO =        -0.00012939
  eigenvalues    EBANDS =    -15679.34866167
  atomic energy  EATOM  =    162405.62235658
  Solvation  Ediel_sol  =         0.00000000
  ---------------------------------------------------
  free energy    TOTEN  =      -393.22217328 eV

  energy without entropy =     -393.22204390  energy(sigma->0) =     -393.22210859


--------------------------------------------------------------------------------------------------------




----------------------------------------- Iteration    1(   7)  ---------------------------------------


    POTLOK:  cpu time    0.9654: real time    0.9650
    SETDIJ:  cpu time    0.4091: real time    0.4091
     EDDAV:  cpu time   15.3643: real time   15.3804
       DOS:  cpu time    0.0058: real time    0.0058
    CHARGE:  cpu time    3.1659: real time    3.1657
    MIXING:  cpu time    0.0398: real time    0.0398
    --------------------------------------------
      LOOP:  cpu time   19.9509: real time   19.9664

 eigenvalue-minimisations  : 14192
 total energy-change (2. order) : 0.1199479E-02  (-0.4430590E-02)
 number of electron     768.0004411 magnetization      43.0313175
 augmentation part      309.1116345 magnetization      28.3792280

 Broyden mixing:
  rms(total) = 0.46134E-01    rms(broyden)= 0.46115E-01
  rms(prec ) = 0.47355E-01
  weight for this iteration     100.00

 eigenvalues of (default mixing * dielectric matrix)
  average eigenvalue GAMMA=   0.9728
  2.1430  0.9567  0.9567  0.7098  0.5352  0.5352

 Free energy of the ion-electron system (eV)
  ---------------------------------------------------
  alpha Z        PSCENC =      5405.26752916
  Ewald energy   TEWEN  =   -103786.92559499
  -Hartree energ DENC   =    -47816.51745739
  -exchange      EXHF   =         0.00000000
  -V(xc)+E(xc)   XCENC  =      5138.31624368
  PAW double counting   =    140986.07508247  -147049.26589432
  entropy T*S    EENTRO =        -0.00012939
  eigenvalues    EBANDS =    -15675.79310961
  atomic energy  EATOM  =    162405.62235658
  Solvation  Ediel_sol  =         0.00000000
  ---------------------------------------------------
  free energy    TOTEN  =      -393.22097380 eV

  energy without entropy =     -393.22084442  energy(sigma->0) =     -393.22090911


--------------------------------------------------------------------------------------------------------




----------------------------------------- Iteration    1(   8)  ---------------------------------------


    POTLOK:  cpu time    0.9484: real time    0.9480
    SETDIJ:  cpu time    0.4083: real time    0.4082
     EDDAV:  cpu time   14.3362: real time   14.3367
       DOS:  cpu time    0.0057: real time    0.0057
    CHARGE:  cpu time    3.1531: real time    3.1527
    MIXING:  cpu time    0.0482: real time    0.0482
    --------------------------------------------
      LOOP:  cpu time   18.9006: real time   18.9001

 eigenvalue-minimisations  : 13232
 total energy-change (2. order) :-0.1242450E-02  (-0.9902421E-03)
 number of electron     768.0004411 magnetization      43.1301834
 augmentation part      309.0956041 magnetization      28.4923653

 Broyden mixing:
  rms(total) = 0.19064E-01    rms(broyden)= 0.19063E-01
  rms(prec ) = 0.21386E-01
  weight for this iteration     100.00

 eigenvalues of (default mixing * dielectric matrix)
  average eigenvalue GAMMA=   1.0134
  2.1258  1.1761  1.1761  0.7650  0.5975  0.6268  0.6268

 Free energy of the ion-electron system (eV)
  ---------------------------------------------------
  alpha Z        PSCENC =      5405.26752916
  Ewald energy   TEWEN  =   -103786.92559499
  -Hartree energ DENC   =    -47819.16991135
  -exchange      EXHF   =         0.00000000
  -V(xc)+E(xc)   XCENC  =      5138.45900061
  PAW double counting   =    140967.31764455  -147030.75899062
  entropy T*S    EENTRO =        -0.00012939
  eigenvalues    EBANDS =    -15673.03412080
  atomic energy  EATOM  =    162405.62235658
  Solvation  Ediel_sol  =         0.00000000
  ---------------------------------------------------
  free energy    TOTEN  =      -393.22221625 eV

  energy without entropy =     -393.22208687  energy(sigma->0) =     -393.22215156


--------------------------------------------------------------------------------------------------------




----------------------------------------- Iteration    1(   9)  ---------------------------------------


    POTLOK:  cpu time    0.9650: real time    0.9649
    SETDIJ:  cpu time    0.4080: real time    0.4080
     EDDAV:  cpu time   15.7606: real time   15.7610
       DOS:  cpu time    0.0058: real time    0.0058
    CHARGE:  cpu time    3.1594: real time    3.1590
    MIXING:  cpu time    0.0468: real time    0.0468
    --------------------------------------------
      LOOP:  cpu time   20.3464: real time   20.3462

 eigenvalue-minimisations  : 14704
 total energy-change (2. order) :-0.2309788E-03  (-0.1539389E-03)
 number of electron     768.0004412 magnetization      43.2125385
 augmentation part      309.1159170 magnetization      28.5791716

 Broyden mixing:
  rms(total) = 0.90471E-02    rms(broyden)= 0.90465E-02
  rms(prec ) = 0.10527E-01
  weight for this iteration     100.00

 eigenvalues of (default mixing * dielectric matrix)
  average eigenvalue GAMMA=   1.0814
  1.9814  1.9814  1.0329  1.0329  0.7672  0.6557  0.6557  0.5442

 Free energy of the ion-electron system (eV)
  ---------------------------------------------------
  alpha Z        PSCENC =      5405.26752916
  Ewald energy   TEWEN  =   -103786.92559499
  -Hartree energ DENC   =    -47817.28052739
  -exchange      EXHF   =         0.00000000
  -V(xc)+E(xc)   XCENC  =      5138.43042537
  PAW double counting   =    140946.91915521  -147010.68520705
  entropy T*S    EENTRO =        -0.00012939
  eigenvalues    EBANDS =    -15674.57045473
  atomic energy  EATOM  =    162405.62235658
  Solvation  Ediel_sol  =         0.00000000
  ---------------------------------------------------
  free energy    TOTEN  =      -393.22244723 eV

  energy without entropy =     -393.22231785  energy(sigma->0) =     -393.22238254


--------------------------------------------------------------------------------------------------------




----------------------------------------- Iteration    1(  10)  ---------------------------------------


    POTLOK:  cpu time    0.9576: real time    0.9574
    SETDIJ:  cpu time    0.4083: real time    0.4082
     EDDAV:  cpu time   14.5631: real time   14.5712
       DOS:  cpu time    0.0056: real time    0.0056
    CHARGE:  cpu time    3.1539: real time    3.1537
    MIXING:  cpu time    0.0578: real time    0.0577
    --------------------------------------------
      LOOP:  cpu time   19.1469: real time   19.1545

 eigenvalue-minimisations  : 13428
 total energy-change (2. order) :-0.2287453E-04  (-0.4613330E-04)
 number of electron     768.0004412 magnetization      43.1934407
 augmentation part      309.1284760 magnetization      28.5586936

 Broyden mixing:
  rms(total) = 0.53853E-02    rms(broyden)= 0.53848E-02
  rms(prec ) = 0.55803E-02
  weight for this iteration     100.00

 eigenvalues of (default mixing * dielectric matrix)
  average eigenvalue GAMMA=   1.0853
  2.3812  1.8863  1.1105  1.1105  0.7455  0.6884  0.6884  0.5785  0.5785

 Free energy of the ion-electron system (eV)
  ---------------------------------------------------
  alpha Z        PSCENC =      5405.26752916
  Ewald energy   TEWEN  =   -103786.92559499
  -Hartree energ DENC   =    -47815.18444574
  -exchange      EXHF   =         0.00000000
  -V(xc)+E(xc)   XCENC  =      5138.34217451
  PAW double counting   =    140923.72543167  -146987.79170686
  entropy T*S    EENTRO =        -0.00012939
  eigenvalues    EBANDS =    -15676.27808504
  atomic energy  EATOM  =    162405.62235658
  Solvation  Ediel_sol  =         0.00000000
  ---------------------------------------------------
  free energy    TOTEN  =      -393.22247011 eV

  energy without entropy =     -393.22234072  energy(sigma->0) =     -393.22240541


--------------------------------------------------------------------------------------------------------




----------------------------------------- Iteration    1(  11)  ---------------------------------------


    POTLOK:  cpu time    0.9579: real time    0.9576
    SETDIJ:  cpu time    0.4074: real time    0.4075
     EDDAV:  cpu time   15.1796: real time   15.1792
       DOS:  cpu time    0.0058: real time    0.0058
    CHARGE:  cpu time    3.1609: real time    3.1607
    MIXING:  cpu time    0.0564: real time    0.0564
    --------------------------------------------
      LOOP:  cpu time   19.7686: real time   19.7678

 eigenvalue-minimisations  : 13936
 total energy-change (2. order) :-0.2141550E-04  (-0.9830486E-05)
 number of electron     768.0004412 magnetization      43.1898003
 augmentation part      309.1250804 magnetization      28.5540577

 Broyden mixing:
  rms(total) = 0.21901E-02    rms(broyden)= 0.21891E-02
  rms(prec ) = 0.24023E-02
  weight for this iteration     100.00

 eigenvalues of (default mixing * dielectric matrix)
  average eigenvalue GAMMA=   1.1052
  2.5920  1.9730  1.1617  1.1617  0.8045  0.8045  0.5829  0.6323  0.6323  0.7070

 Free energy of the ion-electron system (eV)
  ---------------------------------------------------
  alpha Z        PSCENC =      5405.26752916
  Ewald energy   TEWEN  =   -103786.92559499
  -Hartree energ DENC   =    -47815.36004629
  -exchange      EXHF   =         0.00000000
  -V(xc)+E(xc)   XCENC  =      5138.33782009
  PAW double counting   =    140922.21271561  -146986.29521543
  entropy T*S    EENTRO =        -0.00012939
  eigenvalues    EBANDS =    -15676.08192686
  atomic energy  EATOM  =    162405.62235658
  Solvation  Ediel_sol  =         0.00000000
  ---------------------------------------------------
  free energy    TOTEN  =      -393.22249152 eV

  energy without entropy =     -393.22236214  energy(sigma->0) =     -393.22242683


--------------------------------------------------------------------------------------------------------




----------------------------------------- Iteration    1(  12)  ---------------------------------------


    POTLOK:  cpu time    0.9525: real time    0.9521
    SETDIJ:  cpu time    0.4082: real time    0.4081
     EDDAV:  cpu time   12.4423: real time   12.4407
       DOS:  cpu time    0.0055: real time    0.0055
    CHARGE:  cpu time    3.1623: real time    3.1619
    MIXING:  cpu time    0.0645: real time    0.0645
    --------------------------------------------
      LOOP:  cpu time   17.0358: real time   17.0334

 eigenvalue-minimisations  : 10552
 total energy-change (2. order) : 0.3249355E-05  (-0.1934060E-05)
 number of electron     768.0004412 magnetization      43.1880718
 augmentation part      309.1238956 magnetization      28.5516337

 Broyden mixing:
  rms(total) = 0.12862E-02    rms(broyden)= 0.12861E-02
  rms(prec ) = 0.14289E-02
  weight for this iteration     100.00

 eigenvalues of (default mixing * dielectric matrix)
  average eigenvalue GAMMA=   1.0965
  2.5432  2.0243  1.1825  1.1825  0.8737  0.8737  0.5624  0.6490  0.6490  0.7604
  0.7604

 Free energy of the ion-electron system (eV)
  ---------------------------------------------------
  alpha Z        PSCENC =      5405.26752916
  Ewald energy   TEWEN  =   -103786.92559499
  -Hartree energ DENC   =    -47815.34948237
  -exchange      EXHF   =         0.00000000
  -V(xc)+E(xc)   XCENC  =      5138.33862195
  PAW double counting   =    140921.63458534  -146985.87061634
  entropy T*S    EENTRO =        -0.00012939
  eigenvalues    EBANDS =    -15675.93975821
  atomic energy  EATOM  =    162405.62235658
  Solvation  Ediel_sol  =         0.00000000
  ---------------------------------------------------
  free energy    TOTEN  =      -393.22248827 eV

  energy without entropy =     -393.22235889  energy(sigma->0) =     -393.22242358


--------------------------------------------------------------------------------------------------------




----------------------------------------- Iteration    1(  13)  ---------------------------------------


    POTLOK:  cpu time    0.9619: real time    0.9616
    SETDIJ:  cpu time    0.4152: real time    0.4150
     EDDAV:  cpu time   10.4396: real time   10.4414
       DOS:  cpu time    0.0060: real time    0.0060
    CHARGE:  cpu time    3.1673: real time    3.1671
    MIXING:  cpu time    0.0758: real time    0.0758
    --------------------------------------------
      LOOP:  cpu time   15.0665: real time   15.0676

 eigenvalue-minimisations  :  8112
 total energy-change (2. order) : 0.3006309E-05  (-0.6480201E-06)
 number of electron     768.0004412 magnetization      43.1866928
 augmentation part      309.1229762 magnetization      28.5505129

 Broyden mixing:
  rms(total) = 0.52672E-03    rms(broyden)= 0.52663E-03
  rms(prec ) = 0.54623E-03
  weight for this iteration     100.00

 eigenvalues of (default mixing * dielectric matrix)
  average eigenvalue GAMMA=   1.1641
  2.4789  2.4789  1.4623  1.4623  1.0156  1.0156  0.7494  0.7494  0.7352  0.5660
  0.6278  0.6278

 Free energy of the ion-electron system (eV)
  ---------------------------------------------------
  alpha Z        PSCENC =      5405.26752916
  Ewald energy   TEWEN  =   -103786.92559499
  -Hartree energ DENC   =    -47815.33996545
  -exchange      EXHF   =         0.00000000
  -V(xc)+E(xc)   XCENC  =      5138.34133924
  PAW double counting   =    140921.45976141  -146985.82005787
  entropy T*S    EENTRO =        -0.00012939
  eigenvalues    EBANDS =    -15675.82772396
  atomic energy  EATOM  =    162405.62235658
  Solvation  Ediel_sol  =         0.00000000
  ---------------------------------------------------
  free energy    TOTEN  =      -393.22248527 eV

  energy without entropy =     -393.22235588  energy(sigma->0) =     -393.22242057


--------------------------------------------------------------------------------------------------------




----------------------------------------- Iteration    1(  14)  ---------------------------------------


    POTLOK:  cpu time    0.9555: real time    0.9552
    SETDIJ:  cpu time    0.4159: real time    0.4160
     EDDAV:  cpu time    9.1851: real time    9.1912
       DOS:  cpu time    0.0057: real time    0.0057
    CHARGE:  cpu time    3.1633: real time    3.1630
    MIXING:  cpu time    0.0742: real time    0.0741
    --------------------------------------------
      LOOP:  cpu time   13.8002: real time   13.8058

 eigenvalue-minimisations  :  6448
 total energy-change (2. order) : 0.2486631E-05  (-0.1939797E-06)
 number of electron     768.0004412 magnetization      43.1852489
 augmentation part      309.1229409 magnetization      28.5490495

 Broyden mixing:
  rms(total) = 0.27580E-03    rms(broyden)= 0.27574E-03
  rms(prec ) = 0.30008E-03
  weight for this iteration     100.00

 eigenvalues of (default mixing * dielectric matrix)
  average eigenvalue GAMMA=   1.1878
  2.6106  2.6106  1.8428  1.1685  1.1685  0.9767  0.9767  0.8896  0.6943  0.6580
  0.6580  0.5702  0.6168

 Free energy of the ion-electron system (eV)
  ---------------------------------------------------
  alpha Z        PSCENC =      5405.26752916
  Ewald energy   TEWEN  =   -103786.92559499
  -Hartree energ DENC   =    -47815.29820600
  -exchange      EXHF   =         0.00000000
  -V(xc)+E(xc)   XCENC  =      5138.34096814
  PAW double counting   =    140921.05181301  -146985.46035427
  entropy T*S    EENTRO =        -0.00012939
  eigenvalues    EBANDS =    -15675.82086502
  atomic energy  EATOM  =    162405.62235658
  Solvation  Ediel_sol  =         0.00000000
  ---------------------------------------------------
  free energy    TOTEN  =      -393.22248278 eV

  energy without entropy =     -393.22235339  energy(sigma->0) =     -393.22241809


--------------------------------------------------------------------------------------------------------




----------------------------------------- Iteration    1(  15)  ---------------------------------------


    POTLOK:  cpu time    0.9544: real time    0.9541
    SETDIJ:  cpu time    0.4092: real time    0.4091
     EDDAV:  cpu time    8.6853: real time    8.6935
       DOS:  cpu time    0.0060: real time    0.0060
    --------------------------------------------
      LOOP:  cpu time   10.0555: real time   10.0631

 eigenvalue-minimisations  :  5728
 total energy-change (2. order) : 0.6445916E-06  (-0.5935844E-07)
 number of electron     768.0004412 magnetization      43.1852489
 augmentation part      309.1229409 magnetization      28.5490495

 Free energy of the ion-electron system (eV)
  ---------------------------------------------------
  alpha Z        PSCENC =      5405.26752916
  Ewald energy   TEWEN  =   -103786.92559499
  -Hartree energ DENC   =    -47815.31482485
  -exchange      EXHF   =         0.00000000
  -V(xc)+E(xc)   XCENC  =      5138.34104129
  PAW double counting   =    140921.03457527  -146985.43442370
  entropy T*S    EENTRO =        -0.00012939
  eigenvalues    EBANDS =    -15675.81301152
  atomic energy  EATOM  =    162405.62235658
  Solvation  Ediel_sol  =         0.00000000
  ---------------------------------------------------
  free energy    TOTEN  =      -393.22248214 eV

  energy without entropy =     -393.22235275  energy(sigma->0) =     -393.22241744


--------------------------------------------------------------------------------------------------------




 average (electrostatic) potential at core
  the test charge radii are     0.8614  0.6768
  (the norm of the test charge is              1.0000)
       1 -79.8089       2 -79.8089       3 -79.8089       4 -79.8089       5 -79.8089
       6 -79.8089       7 -79.8089       8 -79.8089       9 -79.8089      10 -79.8089
      11 -79.8089      12 -79.8089      13 -79.8089      14 -79.8089      15 -79.8089
      16 -79.8089      17 -79.8089      18 -79.8089      19 -79.8089      20 -79.8089
      21 -79.8089      22 -79.8089      23 -79.8089      24 -79.8089      25 -79.8089
      26 -79.8089      27 -79.8089      28 -79.8089      29 -79.8089      30 -79.8089
      31 -79.8089      32 -79.8089      33-114.0210      34-114.0210      35-114.0210
      36-114.0210      37-114.0210      38-114.0210      39-114.0210      40-114.0210
      41-114.0210      42-114.0210      43-114.0210      44-114.0210      45-114.0210
      46-114.0210      47-114.0210      48-114.0210      49-114.0210      50-114.0210
      51-114.0210      52-114.0210      53-114.0210      54-114.0210      55-114.0210
      56-114.0210      57-114.0210      58-114.0210      59-114.0210      60-114.0210
      61-114.0210      62-114.0210      63-114.0210      64-114.0210
 
 
 
 E-fermi :   7.5542     XC(G=0): -13.0118     alpha+bet :-12.5983


 spin component 1

 k-point     1 :       0.0000    0.0000    0.0000
  band No.  band energies     occupation 
      1     -96.4465      1.00000
      2     -96.4443      1.00000
      3     -96.4443      1.00000
      4     -96.4443      1.00000
      5     -96.4443      1.00000
      6     -96.4443      1.00000
      7     -96.4443      1.00000
      8     -96.4443      1.00000
      9     -96.4443      1.00000
     10     -96.4443      1.00000
     11     -96.4443      1.00000
     12     -96.4443      1.00000
     13     -96.4443      1.00000
     14     -96.4441      1.00000
     15     -96.4441      1.00000
     16     -96.4441      1.00000
     17     -96.4441      1.00000
     18     -96.4441      1.00000
     19     -96.4441      1.00000
     20     -96.4440      1.00000
     21     -96.4440      1.00000
     22     -96.4440      1.00000
     23     -96.4440      1.00000
     24     -96.4434      1.00000
     25     -96.4434      1.00000
     26     -96.4434      1.00000
     27     -96.4433      1.00000
     28     -96.4433      1.00000
     29     -96.4433      1.00000
     30     -96.4433      1.00000
     31     -96.4433      1.00000
     32     -96.4433      1.00000
     33     -56.8685      1.00000
     34     -56.8685      1.00000
     35     -56.8685      1.00000
     36     -56.8685      1.00000
     37     -56.8662      1.00000
     38     -56.8662      1.00000
     39     -56.8662      1.00000
     40     -56.8600      1.00000
     41     -56.8600      1.00000
     42     -56.8600      1.00000
     43     -56.8600      1.00000
     44     -56.8600      1.00000
     45     -56.8600      1.00000
     46     -56.8600      1.00000
     47     -56.8600      1.00000
     48     -56.8600      1.00000
     49     -56.8600      1.00000
     50     -56.8600      1.00000
     51     -56.8600      1.00000
     52     -56.8578      1.00000
     53     -56.8578      1.00000
     54     -56.8578      1.00000
     55     -56.8578      1.00000
     56     -56.8578      1.00000
     57     -56.8578      1.00000
     58     -56.8578      1.00000
     59     -56.8578      1.00000
     60     -56.8578      1.00000
     61     -56.8578      1.00000
     62     -56.8578      1.00000
     63     -56.8578      1.00000
     64     -56.8517      1.00000
     65     -56.8517      1.00000
     66     -56.8517      1.00000
     67     -56.8517      1.00000
     68     -56.8517      1.00000
     69     -56.8517      1.00000
     70     -56.8510      1.00000
     71     -56.8510      1.00000
     72     -56.8510      1.00000
     73     -56.8510      1.00000
     74     -56.8510      1.00000
     75     -56.8510      1.00000
     76     -56.8510      1.00000
     77     -56.8510      1.00000
     78     -56.8510      1.00000
     79     -56.8510      1.00000
     80     -56.8510      1.00000
     81     -56.8510      1.00000
     82     -56.8498      1.00000
     83     -56.8498      1.00000
     84     -56.8498      1.00000
     85     -56.8498      1.00000
     86     -56.8498      1.00000
     87     -56.8498      1.00000
     88     -56.8498      1.00000
     89     -56.8498      1.00000
     90     -56.8498      1.00000
     91     -56.8498      1.00000
     92     -56.8498      1.00000
     93     -56.8498      1.00000
     94     -56.8428      1.00000
     95     -56.8428      1.00000
     96     -56.8428      1.00000
     97     -56.8428      1.00000
     98     -56.8428      1.00000
     99     -56.8428      1.00000
    100     -56.8428      1.00000
    101     -56.8428      1.00000
    102     -56.8428      1.00000
    103     -56.8428      1.00000
    104     -56.8428      1.00000
    105     -56.8428      1.00000
    106     -56.8420      1.00000
    107     -56.8420      1.00000
    108     -56.8420      1.00000
    109     -56.8420      1.00000
    110     -56.8420      1.00000
    111     -56.8420      1.00000
    112     -56.8420      1.00000
    113     -56.8420      1.00000
    114     -56.8420      1.00000
    115     -56.8420      1.00000
    116     -56.8420      1.00000
    117     -56.8420      1.00000
    118     -56.8420      1.00000
    119     -56.8420      1.00000
    120     -56.8420      1.00000
    121     -56.8420      1.00000
    122     -56.8420      1.00000
    123     -56.8420      1.00000
    124     -56.8420      1.00000
    125     -56.8420      1.00000
    126     -56.8380      1.00000
    127     -56.8380      1.00000
    128     -56.8380      1.00000
    129     -12.9290      1.00000
    130     -12.1859      1.00000
    131     -12.1859      1.00000
    132     -12.1859      1.00000
    133     -12.1859      1.00000
    134     -12.1859      1.00000
    135     -12.1859      1.00000
    136     -11.7105      1.00000
    137     -11.7105      1.00000
    138     -11.7105      1.00000
    139     -11.7105      1.00000
    140     -11.7105      1.00000
    141     -11.7105      1.00000
    142     -11.7105      1.00000
    143     -11.7105      1.00000
    144     -11.7105      1.00000
    145     -11.7105      1.00000
    146     -11.7105      1.00000
    147     -11.7105      1.00000
    148     -11.5858      1.00000
    149     -11.5858      1.00000
    150     -11.5858      1.00000
    151     -11.5858      1.00000
    152     -11.5330      1.00000
    153     -11.5330      1.00000
    154     -11.5330      1.00000
    155     -11.4262      1.00000
    156     -11.4262      1.00000
    157     -11.4262      1.00000
    158     -11.4262      1.00000
    159     -11.4262      1.00000
    160     -11.4262      1.00000
    161      -0.7037      1.00000
    162      -0.7037      1.00000
    163      -0.7037      1.00000
    164      -0.7037      1.00000
    165       0.2698      1.00000
    166       0.2698      1.00000
    167       0.2698      1.00000
    168       0.2698      1.00000
    169       0.2698      1.00000
    170       0.2698      1.00000
    171       0.2698      1.00000
    172       0.2698      1.00000
    173       0.2698      1.00000
    174       0.2699      1.00000
    175       0.2699      1.00000
    176       0.2699      1.00000
    177       0.5576      1.00000
    178       0.5576      1.00000
    179       0.5576      1.00000
    180       0.9350      1.00000
    181       0.9350      1.00000
    182       0.9350      1.00000
    183       0.9350      1.00000
    184       0.9350      1.00000
    185       0.9350      1.00000
    186       1.3328      1.00000
    187       1.3328      1.00000
    188       1.3328      1.00000
    189       1.3328      1.00000
    190       1.3328      1.00000
    191       1.3328      1.00000
    192       1.3328      1.00000
    193       1.3328      1.00000
    194       1.3328      1.00000
    195       1.3328      1.00000
    196       1.3328      1.00000
    197       1.3328      1.00000
    198       1.5770      1.00000
    199       1.5770      1.00000
    200       1.5770      1.00000
    201       1.5770      1.00000
    202       1.5770      1.00000
    203       1.5770      1.00000
    204       1.7606      1.00000
    205       1.7606      1.00000
    206       1.7606      1.00000
    207       1.7606      1.00000
    208       1.7606      1.00000
    209       1.7606      1.00000
    210       1.7606      1.00000
    211       1.7606      1.00000
    212       1.8819      1.00000
    213       1.8819      1.00000
    214       1.8819      1.00000
    215       1.8819      1.00000
[...]
   0.104E-11 0.567E-12 0.159E-10   0.782E-13 0.121E-12 0.639E-13   -.132E-21 0.573E-22 0.629E-22   -.856E-12 -.550E-13 -.178E-11
   0.997E-12 0.654E-12 0.115E-11   -.355E-13 0.135E-12 0.128E-12   -.794E-22 0.827E-22 -.122E-21   -.784E-12 -.109E-12 0.198E-12
   0.123E-11 -.435E-12 0.161E-11   0.284E-13 0.142E-13 0.639E-13   0.248E-23 -.513E-22 0.149E-22   -.106E-11 0.191E-12 -.155E-11
   0.129E-11 -.923E-11 0.932E-11   -.711E-13 0.142E-13 0.128E-12   -.112E-21 0.827E-23 -.827E-23   -.109E-11 0.177E-12 0.212E-12
   0.177E-11 0.387E-12 -.447E-11   -.995E-13 0.114E-12 0.639E-13   0.132E-21 -.662E-23 0.248E-22   0.193E-11 0.194E-12 -.118E-11
   0.179E-11 0.276E-12 -.542E-10   -.142E-13 0.114E-12 0.128E-12   -.192E-21 0.918E-22 -.926E-22   0.190E-11 0.369E-12 0.654E-12
   0.157E-11 -.956E-11 -.847E-11   -.711E-13 0.142E-12 0.711E-14   0.281E-22 0.281E-22 0.827E-23   0.215E-11 0.190E-12 -.114E-11
   0.153E-11 0.125E-10 -.784E-11   0.995E-13 0.142E-12 0.128E-12   0.993E-23 -.265E-22 0.707E-22   0.214E-11 0.733E-13 0.741E-12
   0.113E-11 0.709E-11 -.261E-11   0.115E-12 0.349E-12 0.643E-13   0.265E-22 -.116E-21 0.199E-22   -.969E-12 -.119E-13 0.214E-11
   0.121E-11 -.656E-11 -.447E-11   0.355E-13 0.349E-12 0.125E-12   -.232E-22 -.852E-22 0.612E-22   -.103E-11 0.702E-13 -.162E-11
   0.104E-11 -.618E-11 -.318E-11   -.355E-13 0.360E-12 0.643E-13   0.248E-22 -.149E-22 0.240E-22   -.893E-12 0.572E-13 0.211E-11
   0.110E-11 0.139E-12 -.114E-10   -.114E-12 0.374E-12 0.182E-12   0.562E-22 0.124E-22 -.505E-22   -.977E-12 0.279E-13 -.153E-11
   0.167E-11 0.564E-11 0.164E-10   -.426E-13 0.363E-12 0.121E-12   0.529E-22 -.331E-22 -.116E-22   0.190E-11 0.333E-12 0.258E-11
   0.160E-11 0.728E-12 -.189E-10   -.853E-13 0.349E-12 0.125E-12   0.678E-22 -.298E-22 -.145E-21   0.197E-11 0.336E-12 -.107E-11
   0.174E-11 -.361E-10 0.131E-10   -.142E-13 0.396E-12 0.643E-13   -.827E-22 0.184E-21 0.347E-22   0.192E-11 0.981E-13 0.271E-11
   0.169E-11 0.259E-11 0.283E-11   0.284E-12 0.310E-12 0.680E-13   -.146E-21 0.238E-22 0.126E-21   0.197E-11 0.105E-12 -.123E-11
   0.139E-12 0.379E-12 -.385E-12   -.160E-13 -.346E-13 -.654E-14   0.112E-22 -.507E-23 0.103E-23   -.526E-12 -.336E-13 0.971E-12
   0.129E-12 0.357E-12 -.934E-11   -.853E-13 -.213E-13 0.181E-14   -.165E-23 -.827E-23 0.238E-22   -.475E-12 -.341E-13 -.403E-12
   0.211E-12 0.885E-12 -.105E-10   -.977E-13 -.533E-14 -.654E-14   -.579E-23 -.827E-23 -.128E-22   -.588E-12 0.526E-13 0.994E-12
   0.240E-12 0.100E-11 0.660E-12   -.853E-13 -.213E-13 0.181E-14   0.117E-22 0.124E-23 -.631E-23   -.636E-12 0.484E-13 -.522E-12
   0.530E-12 0.321E-12 0.208E-11   -.577E-13 -.204E-13 0.145E-14   -.182E-22 0.662E-23 0.124E-23   0.663E-12 0.199E-13 0.104E-11
   0.541E-12 0.299E-12 -.139E-11   -.711E-13 -.711E-14 0.270E-14   -.786E-23 0.128E-22 -.112E-22   0.618E-12 0.644E-13 -.544E-12
   0.451E-12 -.961E-12 0.129E-10   -.888E-15 -.533E-14 0.566E-15   0.153E-22 -.951E-23 0.331E-23   0.727E-12 0.148E-13 0.961E-12
   0.419E-12 0.510E-11 -.956E-12   -.142E-13 -.711E-14 0.181E-14   -.414E-24 0.114E-22 0.827E-24   0.778E-12 -.308E-13 -.453E-12
   0.214E-12 -.181E-11 0.937E-12   -.524E-13 0.891E-14 0.000E+00   0.910E-23 0.116E-22 -.496E-23   -.595E-12 -.893E-14 -.517E-12
   0.196E-12 0.394E-11 0.235E-11   -.240E-13 -.497E-13 0.000E+00   -.532E-23 -.256E-22 0.132E-22   -.522E-12 -.696E-13 0.404E-12
   0.177E-12 0.429E-11 0.256E-11   -.355E-13 0.927E-14 0.000E+00   -.161E-22 0.360E-22 -.265E-22   -.509E-12 -.931E-13 -.520E-12
   0.177E-12 -.756E-12 0.221E-11   -.107E-12 0.839E-14 0.000E+00   -.744E-23 0.150E-22 0.451E-22   -.559E-12 -.232E-13 0.395E-12
   0.466E-12 0.485E-11 -.129E-11   -.231E-13 -.337E-13 0.888E-15   0.496E-23 0.713E-23 -.160E-22   0.729E-12 -.453E-13 -.481E-12
   0.485E-12 0.159E-10 -.823E-11   0.533E-14 -.497E-13 0.888E-15   -.538E-23 0.243E-23 0.244E-22   0.650E-12 0.363E-13 0.350E-12
   0.489E-12 -.802E-11 0.116E-10   -.497E-13 0.927E-14 0.000E+00   0.827E-23 0.215E-22 0.951E-23   0.650E-12 -.457E-13 -.516E-12
   0.488E-12 0.168E-11 -.452E-11   0.213E-13 0.226E-13 0.000E+00   -.514E-23 0.744E-23 0.744E-23   0.706E-12 -.124E-12 0.411E-12
   0.269E-12 0.323E-12 0.164E-12   0.959E-13 -.364E-13 -.133E-13   0.786E-23 -.331E-23 0.230E-22   0.712E-12 0.650E-13 -.582E-12
   0.214E-12 0.320E-12 0.364E-12   0.112E-12 -.364E-13 -.622E-14   0.207E-23 -.141E-22 0.203E-22   0.812E-12 0.257E-13 0.414E-12
   0.251E-12 0.142E-12 0.119E-12   0.709E-13 -.213E-13 -.133E-13   -.145E-22 0.215E-22 -.703E-23   0.753E-12 -.220E-13 -.472E-12
   0.243E-12 -.118E-12 -.130E-12   0.169E-12 -.355E-13 -.622E-14   0.615E-23 -.570E-23 -.724E-23   0.706E-12 0.133E-13 0.338E-12
   0.612E-13 0.381E-12 0.190E-10   0.144E-12 -.355E-13 -.142E-13   -.103E-24 0.120E-22 -.237E-22   -.833E-12 -.318E-13 -.506E-12
   0.118E-12 0.361E-12 0.319E-11   0.101E-12 -.355E-13 -.711E-14   0.248E-23 0.124E-23 -.931E-23   -.934E-12 0.572E-13 0.385E-12
   0.850E-13 0.489E-11 0.824E-11   0.115E-12 -.711E-14 -.142E-13   0.106E-22 0.827E-24 -.662E-23   -.888E-12 0.172E-13 -.497E-12
   0.941E-13 0.571E-11 0.489E-11   0.100E-12 -.711E-14 -.711E-14   -.414E-23 -.116E-22 -.196E-22   -.842E-12 -.730E-13 0.415E-12
   0.263E-12 0.228E-13 0.359E-12   0.798E-13 -.627E-14 -.156E-13   -.261E-22 -.296E-22 -.744E-23   0.735E-12 -.278E-13 0.995E-12
   0.282E-12 -.326E-13 0.309E-12   0.108E-12 -.205E-13 -.839E-14   -.232E-22 0.182E-22 0.620E-23   0.691E-12 0.643E-13 -.516E-12
   0.205E-12 0.381E-12 0.382E-12   0.105E-12 0.762E-14 -.151E-13   -.605E-23 -.372E-23 0.186E-23   0.793E-12 -.454E-13 0.950E-12
   0.226E-12 -.132E-12 0.680E-13   0.771E-13 0.756E-14 -.795E-14   -.414E-24 -.237E-23 0.227E-22   0.788E-12 -.124E-12 -.476E-12
   0.628E-13 0.182E-10 -.119E-10   0.139E-12 0.671E-14 -.143E-13   -.496E-23 0.153E-22 0.248E-23   -.857E-12 -.549E-13 0.922E-12
   0.440E-13 0.743E-11 0.833E-11   0.167E-12 -.218E-13 -.715E-14   0.248E-23 -.538E-23 -.124E-23   -.809E-12 -.587E-13 -.440E-12
   0.128E-12 0.265E-11 -.120E-10   0.165E-12 -.693E-14 -.139E-13   0.157E-22 0.116E-22 0.331E-23   -.914E-12 -.817E-14 0.102E-11
   0.109E-12 0.552E-11 0.436E-11   0.941E-13 0.722E-14 -.671E-14   0.910E-23 -.592E-23 0.714E-23   -.909E-12 0.559E-14 -.546E-12
 -----------------------------------------------------------------------------------------------
   0.350E-10 0.105E-09 -.627E-10   -.239E-13 0.223E-12 0.233E-12   -.991E-21 0.460E-21 -.353E-21   0.569E-11 0.334E-11 0.420E-11
 
 
 POSITION                                       TOTAL-FORCE (eV/Angst)
 -----------------------------------------------------------------------------------
      0.00000      0.00000      0.00000        -0.000000      0.000000     -0.000000
      0.00000      0.00000      4.18658         0.000000      0.000000     -0.000000
      0.00000      4.18658      0.00000        -0.000000      0.000000      0.000000
      0.00000      4.18658      4.18658         0.000000      0.000000     -0.000000
      4.18658      0.00000      0.00000         0.000000      0.000000     -0.000000
      4.18658      0.00000      4.18658        -0.000000     -0.000000      0.000000
      4.18658      4.18658      0.00000        -0.000000     -0.000000     -0.000000
      4.18658      4.18658      4.18658        -0.000000      0.000000     -0.000000
      0.00000      2.09329      2.09329         0.000000      0.000000     -0.000000
      0.00000      2.09329      6.27987         0.000000     -0.000000      0.000000
      0.00000      6.27987      2.09329         0.000000      0.000000     -0.000000
      0.00000      6.27987      6.27987        -0.000000     -0.000000     -0.000000
      4.18658      2.09329      2.09329         0.000000     -0.000000      0.000000
      4.18658      2.09329      6.27987        -0.000000      0.000000      0.000000
      4.18658      6.27987      2.09329        -0.000000      0.000000     -0.000000
      4.18658      6.27987      6.27987        -0.000000     -0.000000      0.000000
      2.09329      0.00000      2.09329        -0.000000     -0.000000      0.000000
      2.09329      0.00000      6.27987        -0.000000     -0.000000     -0.000000
      2.09329      4.18658      2.09329         0.000000     -0.000000     -0.000000
      2.09329      4.18658      6.27987         0.000000      0.000000      0.000000
      6.27987      0.00000      2.09329         0.000000     -0.000000      0.000000
      6.27987      0.00000      6.27987         0.000000     -0.000000     -0.000000
      6.27987      4.18658      2.09329         0.000000      0.000000     -0.000000
      6.27987      4.18658      6.27987         0.000000     -0.000000     -0.000000
      2.09329      2.09329      0.00000         0.000000      0.000000     -0.000000
      2.09329      2.09329      4.18658         0.000000      0.000000     -0.000000
      2.09329      6.27987      0.00000        -0.000000     -0.000000      0.000000
      2.09329      6.27987      4.18658        -0.000000     -0.000000      0.000000
      6.27987      2.09329      0.00000         0.000000     -0.000000      0.000000
      6.27987      2.09329      4.18658        -0.000000     -0.000000      0.000000
      6.27987      6.27987      0.00000        -0.000000      0.000000     -0.000000
      6.27987      6.27987      4.18658        -0.000000      0.000000     -0.000000
      2.09329      0.00000      0.00000         0.000000     -0.000000      0.000000
      2.09329      0.00000      4.18658        -0.000000     -0.000000     -0.000000
      2.09329      4.18658      0.00000         0.000000      0.000000      0.000000
      2.09329      4.18658      4.18658        -0.000000      0.000000     -0.000000
      6.27987      0.00000      0.00000        -0.000000      0.000000      0.000000
      6.27987      0.00000      4.18658        -0.000000     -0.000000      0.000000
      6.27987      4.18658      0.00000        -0.000000      0.000000      0.000000
      6.27987      4.18658      4.18658        -0.000000      0.000000     -0.000000
      2.09329      2.09329      2.09329         0.000000     -0.000000     -0.000000
      2.09329      2.09329      6.27987        -0.000000      0.000000      0.000000
      2.09329      6.27987      2.09329         0.000000     -0.000000     -0.000000
      2.09329      6.27987      6.27987        -0.000000      0.000000     -0.000000
      6.27987      2.09329      2.09329        -0.000000     -0.000000      0.000000
      6.27987      2.09329      6.27987         0.000000      0.000000     -0.000000
      6.27987      6.27987      2.09329         0.000000     -0.000000      0.000000
      6.27987      6.27987      6.27987        -0.000000      0.000000     -0.000000
      0.00000      0.00000      2.09329         0.000000     -0.000000      0.000000
      0.00000      0.00000      6.27987         0.000000      0.000000     -0.000000
      0.00000      4.18658      2.09329         0.000000     -0.000000      0.000000
      0.00000      4.18658      6.27987        -0.000000     -0.000000     -0.000000
      4.18658      0.00000      2.09329         0.000000     -0.000000      0.000000
      4.18658      0.00000      6.27987        -0.000000      0.000000      0.000000
      4.18658      4.18658      2.09329         0.000000     -0.000000      0.000000
      4.18658      4.18658      6.27987        -0.000000      0.000000     -0.000000
      0.00000      2.09329      0.00000        -0.000000     -0.000000      0.000000
      0.00000      2.09329      4.18658        -0.000000     -0.000000     -0.000000
      0.00000      6.27987      0.00000         0.000000      0.000000      0.000000
      0.00000      6.27987      4.18658         0.000000     -0.000000      0.000000
      4.18658      2.09329      0.00000         0.000000     -0.000000     -0.000000
      4.18658      2.09329      4.18658        -0.000000     -0.000000     -0.000000
      4.18658      6.27987      0.00000         0.000000      0.000000     -0.000000
      4.18658      6.27987      4.18658        -0.000000      0.000000     -0.000000
 -----------------------------------------------------------------------------------
    total drift:                                0.000000      0.000000     -0.000000


--------------------------------------------------------------------------------------------------------



  FREE ENERGIE OF THE ION-ELECTRON SYSTEM (eV)
  ---------------------------------------------------
  free  energy   TOTEN  =      -393.22248214 eV

  energy  without entropy=     -393.22235275  energy(sigma->0) =     -393.22241744
 


--------------------------------------------------------------------------------------------------------


    POTLOK:  cpu time    1.3617: real time    1.3614


--------------------------------------------------------------------------------------------------------


 writing wavefunctions
     LOOP+:  cpu time  295.5828: real time  295.6232
    4ORBIT:  cpu time    0.0000: real time    0.0000
 


 total charge     
 
# of ion       s       p       d       f       tot
--------------------------------------------------
    1        2.150   6.211   7.823   0.009  16.193
    2        2.150   6.211   7.823   0.009  16.193
    3        2.150   6.211   7.823   0.009  16.193
    4        2.150   6.211   7.823   0.009  16.193
    5        2.150   6.211   7.823   0.009  16.193
    6        2.150   6.211   7.823   0.009  16.193
    7        2.150   6.211   7.823   0.009  16.193
    8        2.150   6.211   7.823   0.009  16.193
    9        2.150   6.211   7.823   0.009  16.193
   10        2.150   6.211   7.823   0.009  16.193
   11        2.150   6.211   7.823   0.009  16.193
   12        2.150   6.211   7.823   0.009  16.193
   13        2.150   6.211   7.823   0.009  16.193
   14        2.150   6.211   7.823   0.009  16.193
   15        2.150   6.211   7.823   0.009  16.193
   16        2.150   6.211   7.823   0.009  16.193
   17        2.150   6.211   7.823   0.009  16.193
   18        2.150   6.211   7.823   0.009  16.193
   19        2.150   6.211   7.823   0.009  16.193
   20        2.150   6.211   7.823   0.009  16.193
   21        2.150   6.211   7.823   0.009  16.193
   22        2.150   6.211   7.823   0.009  16.193
   23        2.150   6.211   7.823   0.009  16.193
   24        2.150   6.211   7.823   0.009  16.193
   25        2.150   6.211   7.823   0.009  16.193
   26        2.150   6.211   7.823   0.009  16.193
   27        2.150   6.211   7.823   0.009  16.193
   28        2.150   6.211   7.823   0.009  16.193
   29        2.150   6.211   7.823   0.009  16.193
   30        2.150   6.211   7.823   0.009  16.193
   31        2.150   6.211   7.823   0.009  16.193
   32        2.150   6.211   7.823   0.009  16.193
   33        1.628   3.533   0.019   0.000   5.180
   34        1.628   3.533   0.019   0.000   5.180
   35        1.628   3.533   0.019   0.000   5.180
   36        1.628   3.533   0.019   0.000   5.180
   37        1.628   3.533   0.019   0.000   5.180
   38        1.628   3.533   0.019   0.000   5.180
   39        1.628   3.533   0.019   0.000   5.180
   40        1.628   3.533   0.019   0.000   5.180
   41        1.628   3.533   0.019   0.000   5.180
   42        1.628   3.533   0.019   0.000   5.180
   43        1.628   3.533   0.019   0.000   5.180
   44        1.628   3.533   0.019   0.000   5.180
   45        1.628   3.533   0.019   0.000   5.180
   46        1.628   3.533   0.019   0.000   5.180
   47        1.628   3.533   0.019   0.000   5.180
   48        1.628   3.533   0.019   0.000   5.180
   49        1.628   3.533   0.019   0.000   5.180
   50        1.628   3.533   0.019   0.000   5.180
   51        1.628   3.533   0.019   0.000   5.180
   52        1.628   3.533   0.019   0.000   5.180
   53        1.628   3.533   0.019   0.000   5.180
   54        1.628   3.533   0.019   0.000   5.180
   55        1.628   3.533   0.019   0.000   5.180
   56        1.628   3.533   0.019   0.000   5.180
   57        1.628   3.533   0.019   0.000   5.180
   58        1.628   3.533   0.019   0.000   5.180
   59        1.628   3.533   0.019   0.000   5.180
   60        1.628   3.533   0.019   0.000   5.180
   61        1.628   3.533   0.019   0.000   5.180
   62        1.628   3.533   0.019   0.000   5.180
   63        1.628   3.533   0.019   0.000   5.180
   64        1.628   3.533   0.019   0.000   5.180
--------------------------------------------------
tot        120.881 311.812 250.944   0.289 683.925

 


 magnetization (x)
 
# of ion       s       p       d       f       tot
--------------------------------------------------
    1        0.006   0.011   1.109   0.001   1.126
    2        0.006   0.011   1.109   0.001   1.126
    3        0.006   0.011   1.109   0.001   1.126
    4        0.006   0.011   1.109   0.001   1.126
    5        0.006   0.011   1.109   0.001   1.126
    6        0.006   0.011   1.109   0.001   1.126
    7        0.006   0.011   1.109   0.001   1.126
    8        0.006   0.011   1.109   0.001   1.126
    9        0.006   0.011   1.109   0.001   1.126
   10        0.006   0.011   1.109   0.001   1.126
   11        0.006   0.011   1.109   0.001   1.126
   12        0.006   0.011   1.109   0.001   1.126
   13        0.006   0.011   1.109   0.001   1.126
   14        0.006   0.011   1.109   0.001   1.126
   15        0.006   0.011   1.109   0.001   1.126
   16        0.006   0.011   1.109   0.001   1.126
   17        0.006   0.011   1.109   0.001   1.126
   18        0.006   0.011   1.109   0.001   1.126
   19        0.006   0.011   1.109   0.001   1.126
   20        0.006   0.011   1.109   0.001   1.126
   21        0.006   0.011   1.109   0.001   1.126
   22        0.006   0.011   1.109   0.001   1.126
   23        0.006   0.011   1.109   0.001   1.126
   24        0.006   0.011   1.109   0.001   1.126
   25        0.006   0.011   1.109   0.001   1.126
   26        0.006   0.011   1.109   0.001   1.126
   27        0.006   0.011   1.109   0.001   1.126
   28        0.006   0.011   1.109   0.001   1.126
   29        0.006   0.011   1.109   0.001   1.126
   30        0.006   0.011   1.109   0.001   1.126
   31        0.006   0.011   1.109   0.001   1.126
   32        0.006   0.011   1.109   0.001   1.126
   33        0.022   0.177   0.002   0.000   0.202
   34        0.022   0.177   0.002   0.000   0.202
   35        0.022   0.177   0.002   0.000   0.202
   36        0.022   0.177   0.002   0.000   0.202
   37        0.022   0.177   0.002   0.000   0.202
   38        0.022   0.177   0.002   0.000   0.202
   39        0.022   0.177   0.002   0.000   0.202
   40        0.022   0.177   0.002   0.000   0.202
   41        0.022   0.177   0.002   0.000   0.202
   42        0.022   0.177   0.002   0.000   0.202
   43        0.022   0.177   0.002   0.000   0.202
   44        0.022   0.177   0.002   0.000   0.202
   45        0.022   0.177   0.002   0.000   0.202
   46        0.022   0.177   0.002   0.000   0.202
   47        0.022   0.177   0.002   0.000   0.202
   48        0.022   0.177   0.002   0.000   0.202
   49        0.022   0.177   0.002   0.000   0.202
   50        0.022   0.177   0.002   0.000   0.202
   51        0.022   0.177   0.002   0.000   0.202
   52        0.022   0.177   0.002   0.000   0.202
   53        0.022   0.177   0.002   0.000   0.202
   54        0.022   0.177   0.002   0.000   0.202
   55        0.022   0.177   0.002   0.000   0.202
   56        0.022   0.177   0.002   0.000   0.202
   57        0.022   0.177   0.002   0.000   0.202
   58        0.022   0.177   0.002   0.000   0.202
   59        0.022   0.177   0.002   0.000   0.202
   60        0.022   0.177   0.002   0.000   0.202
   61        0.022   0.177   0.002   0.000   0.202
   62        0.022   0.177   0.002   0.000   0.202
   63        0.022   0.177   0.002   0.000   0.202
   64        0.022   0.177   0.002   0.000   0.202
--------------------------------------------------
tot          0.906   6.010  35.544   0.023  42.483

 
