       N       E                     dE             d eps       ncg     rms          rms(c)
DAV:   1     0.336461854204E+05    0.33646E+05   -0.22777E+05 13048   0.620E+03
DAV:   2     0.137762546180E+05   -0.19870E+05   -0.17864E+05 13912   0.243E+03
DAV:   3     0.446947770662E+04   -0.93068E+04   -0.87304E+04 16256   0.131E+03
DAV:   4     0.104782576892E+04   -0.34217E+04   -0.31792E+04 20700   0.111E+03
DAV:   5     0.311624920261E+01   -0.10447E+04   -0.91219E+03 21456   0.761E+02    0.151E+02
DAV:   6    -0.293093258306E+03   -0.29621E+03   -0.33467E+03 21784   0.488E+02    0.390E+01
DAV:   7    -0.367554312383E+03   -0.74461E+02   -0.98452E+02 20284   0.286E+02    0.237E+01
DAV:   8    -0.385659235312E+03   -0.18105E+02   -0.26382E+02 20352   0.147E+02    0.127E+01
DAV:   9    -0.391994372805E+03   -0.63351E+01   -0.70365E+01 18776   0.108E+02    0.104E+01
DAV:  10    -0.392617729337E+03   -0.62336E+00   -0.15794E+01 20720   0.334E+01    0.436E+00
DAV:  11    -0.392953894155E+03   -0.33616E+00   -0.25077E+00 20152   0.141E+01    0.281E+00
DAV:  12    -0.392989942222E+03   -0.36048E-01   -0.43189E-01 20384   0.677E+00    0.897E-01
DAV:  13    -0.392996514254E+03   -0.65720E-02   -0.74301E-02 20488   0.229E+00    0.432E-01
DAV:  14    -0.392998127004E+03   -0.16128E-02   -0.26197E-02 21192   0.102E+00    0.252E-01
DAV:  15    -0.392998308563E+03   -0.18156E-03   -0.54786E-03 19944   0.745E-01    0.165E-01
DAV:  16    -0.392999377812E+03   -0.10692E-02   -0.62251E-03 21296   0.721E-01    0.297E-01
DAV:  17    -0.392998501287E+03    0.87653E-03   -0.21295E-03 20376   0.443E-01    0.774E-02
DAV:  18    -0.392998520307E+03   -0.19020E-04   -0.69768E-04 19528   0.173E-01    0.172E-02
DAV:  19    -0.392998533867E+03   -0.13559E-04   -0.69333E-05 15664   0.974E-02    0.688E-03
DAV:  20    -0.392998539427E+03   -0.55599E-05   -0.17507E-05 13360   0.408E-02    0.606E-03
DAV:  21    -0.392998540153E+03   -0.72684E-06   -0.47885E-06  8272   0.254E-02
   1 F= -.39299854E+03 E0= -.39299841E+03  d E =-.266304E-03  mag=     0.0000
