       N       E                     dE             d eps       ncg     rms          rms(c)
DAV:   1     0.336062547187E+05    0.33606E+05   -0.22794E+05 12984   0.618E+03
DAV:   2     0.137168158955E+05   -0.19889E+05   -0.17898E+05 14008   0.243E+03
DAV:   3     0.442815827665E+04   -0.92887E+04   -0.87142E+04 16256   0.131E+03
DAV:   4     0.102405281895E+04   -0.34041E+04   -0.31674E+04 20792   0.111E+03
DAV:   5    -0.213694801406E+01   -0.10262E+04   -0.89335E+03 21456   0.756E+02    0.149E+02
DAV:   6    -0.296808999854E+03   -0.29467E+03   -0.33632E+03 21808   0.490E+02    0.453E+01
DAV:   7    -0.380134927982E+03   -0.83326E+02   -0.10255E+03 20640   0.292E+02    0.296E+01
DAV:   8    -0.393546662383E+03   -0.13412E+02   -0.27896E+02 21536   0.153E+02    0.161E+01
DAV:   9    -0.400059023783E+03   -0.65124E+01   -0.77488E+01 17032   0.149E+02    0.987E+00
DAV:  10    -0.400964635596E+03   -0.90561E+00   -0.17284E+01 20944   0.373E+01    0.434E+00
DAV:  11    -0.401295907433E+03   -0.33127E+00   -0.24935E+00 19568   0.167E+01    0.232E+00
DAV:  12    -0.401376080947E+03   -0.80174E-01   -0.50152E-01 20456   0.480E+00    0.932E-01
DAV:  13    -0.401384078398E+03   -0.79975E-02   -0.73477E-02 19968   0.313E+00    0.565E-01
DAV:  14    -0.401386025601E+03   -0.19472E-02   -0.16935E-02 21616   0.118E+00    0.340E-01
DAV:  15    -0.401387160382E+03   -0.11348E-02   -0.46300E-03 19176   0.652E-01    0.166E-01
DAV:  16    -0.401387199550E+03   -0.39168E-04   -0.11212E-03 20904   0.416E-01    0.642E-02
DAV:  17    -0.401387204604E+03   -0.50533E-05   -0.40320E-04 18840   0.172E-01    0.133E-02
DAV:  18    -0.401387218688E+03   -0.14084E-04   -0.15025E-04 17176   0.107E-01    0.106E-02
DAV:  19    -0.401387221415E+03   -0.27273E-05   -0.32144E-05 13152   0.622E-02    0.673E-03
DAV:  20    -0.401387225434E+03   -0.40192E-05   -0.14566E-05 12576   0.375E-02    0.463E-03
DAV:  21    -0.401387225461E+03   -0.26310E-07   -0.43330E-06  8272   0.279E-02
   1 F= -.40138723E+03 E0= -.40138723E+03  d E =0.000000E+00  mag=    -0.0000
