       N       E                     dE             d eps       ncg     rms          rms(c)
DAV:   1     0.323931825692E+05    0.32393E+05   -0.21591E+05  9120   0.580E+03
DAV:   2     0.125831401486E+05   -0.19810E+05   -0.17551E+05  9592   0.212E+03
DAV:   3     0.342813947947E+04   -0.91550E+04   -0.84809E+04 11496   0.113E+03
DAV:   4     0.555403584628E+03   -0.28727E+04   -0.26142E+04 15084   0.940E+02
DAV:   5    -0.209883613888E+03   -0.76529E+03   -0.64584E+03 15280   0.618E+02    0.127E+02
DAV:   6    -0.339328474204E+03   -0.12944E+03   -0.23024E+03 15176   0.463E+02    0.345E+01
DAV:   7    -0.381433299462E+03   -0.42105E+02   -0.66408E+02 12740   0.290E+02    0.205E+01
DAV:   8    -0.390897900306E+03   -0.94646E+01   -0.16226E+02 15208   0.121E+02    0.163E+01
DAV:   9    -0.392562178065E+03   -0.16643E+01   -0.29601E+01 12896   0.704E+01    0.859E+00
DAV:  10    -0.393029935533E+03   -0.46776E+00   -0.58726E+00 15544   0.173E+01    0.424E+00
DAV:  11    -0.393139385695E+03   -0.10945E+00   -0.82752E-01 15008   0.895E+00    0.284E+00
DAV:  12    -0.393177353955E+03   -0.37968E-01   -0.14927E-01 13936   0.478E+00    0.126E+00
DAV:  13    -0.393191403574E+03   -0.14050E-01   -0.68182E-02 14872   0.207E+00    0.508E-01
DAV:  14    -0.393192634570E+03   -0.12310E-02   -0.76037E-03 13216   0.965E-01    0.126E-01
DAV:  15    -0.393192950033E+03   -0.31546E-03   -0.16312E-03 14592   0.312E-01    0.799E-02
DAV:  16    -0.393192988725E+03   -0.38693E-04   -0.22290E-04 14792   0.139E-01    0.404E-02
DAV:  17    -0.393193001556E+03   -0.12831E-04   -0.66296E-05 13512   0.646E-02    0.124E-02
DAV:  18    -0.393193004268E+03   -0.27121E-05   -0.12406E-05  9368   0.339E-02    0.451E-03
DAV:  19    -0.393193006756E+03   -0.24879E-05   -0.41750E-06  6864   0.198E-02    0.272E-03
DAV:  20    -0.393193009073E+03   -0.23172E-05   -0.13623E-06  6232   0.129E-02    0.133E-03
DAV:  21    -0.393193009467E+03   -0.39354E-06   -0.76165E-07  6080   0.941E-03
   1 F= -.39319301E+03 E0= -.39319293E+03  d E =-.154600E-03  mag=    48.0745
