 vasp.5.4.4.18Apr17-6-g9f103f2a35 (build Oct 10 2019 09:51:33) complex          
  
 executed on   carbon_intel19_gpu date 2020.09.25  15:49:09
 running on    1 total cores
 distrk:  each k-point on    1 cores,    1 groups
 distr:  one band on NCORES_PER_BAND=   1 cores,    1 groups


--------------------------------------------------------------------------------------------------------


 INCAR:
 POTCAR:    PAW_PBE Ni_sv_GW 05Dec2013            
 POTCAR:    PAW_PBE O_GW 19Mar2012                
 POTCAR:    PAW_PBE Ni_sv_GW 05Dec2013            
   VRHFIN =Ni:                                                                  
   LEXCH  = PE                                                                  
   EATOM  =  4642.8712 eV,  341.2414 Ry                                         
                                                                                
   TITEL  = PAW_PBE Ni_sv_GW 05Dec2013                                          
   LULTRA =        F    use ultrasoft PP ?                                      
   IUNSCR =        1    unscreen: 0-lin 1-nonlin 2-no                           
   RPACOR =    1.400    partial core radius                                     
   POMASS =   58.690; ZVAL   =   18.000    mass and valenz                      
   RCORE  =    1.900    outmost cutoff radius                                   
   RWIGS  =    2.100; RWIGS  =    1.111    wigner-seitz radius (au A)           
   ENMAX  =  389.645; ENMIN  =  292.234 eV                                      
   RCLOC  =    1.301    cutoff for local pot                                    
   LCOR   =        T    correct aug charges                                     
   LPAW   =        T    paw PP                                                  
   EAUG   = 1036.387                                                            
   RMAX   =    1.945    core radius for proj-oper                               
   RAUG   =    1.300    factor for augmentation sphere                          
   RDEP   =    1.972    radius for radial grids                                 
   RDEPT  =    1.600    core radius for aug-charge                              
                                                                                
   Atomic configuration                                                         
    8 entries                                                                   
     n  l   j            E        occ.                                          
     1  0  0.50     -8203.3308   2.0000                                         
     2  0  0.50      -972.7019   2.0000                                         
     2  1  1.50      -835.6236   6.0000                                         
     3  0  0.50      -102.6944   2.0000                                         
     3  1  1.50       -63.2363   6.0000                                         
     3  1  1.50       -68.0291   0.0000                                         
     3  2  2.50        -1.9692  10.0000                                         
     4  3  2.50        -1.3606   0.0000                                         
   Description                                                                  
     l       E           TYP  RCUT    TYP  RCUT                                 
     0   -102.6944069     23  1.400                                             
     0      1.3605826     23  1.700                                             
     0    204.0873900     23  1.400                                             
     1    -63.2363356     23  1.650                                             
     1    -68.0291300     23  1.650                                             
     1    136.0582600     23  1.650                                             
     2     -1.9691936     23  1.900                                             
     2     27.2116520     23  1.900                                             
     2    136.0582600     23  1.900                                             
     3     27.2116520     23  1.900                                             
     3    136.0582600     23  1.900                                             
  local pseudopotential read in
  partial core-charges read in
  partial kinetic energy density read in
  kinetic energy density of atom read in
  atomic valenz-charges read in
  non local Contribution for L=           0  read in
    real space projection operators read in
  non local Contribution for L=           0  read in
    real space projection operators read in
  non local Contribution for L=           0  read in
    real space projection operators read in
  non local Contribution for L=           1  read in
    real space projection operators read in
  non local Contribution for L=           1  read in
    real space projection operators read in
  non local Contribution for L=           1  read in
    real space projection operators read in
  non local Contribution for L=           2  read in
    real space projection operators read in
  non local Contribution for L=           2  read in
    real space projection operators read in
  non local Contribution for L=           2  read in
    real space projection operators read in
  non local Contribution for L=           3  read in
    real space projection operators read in
  non local Contribution for L=           3  read in
    real space projection operators read in
    PAW grid and wavefunctions read in
 
   number of l-projection  operators is LMAX  =          11
   number of lm-projection operators is LMMAX =          41
 
 POTCAR:    PAW_PBE O_GW 19Mar2012                
   VRHFIN =O: s2p4                                                              
   LEXCH  = PE                                                                  
   EATOM  =   432.3788 eV,   31.7789 Ry                                         
                                                                                
   TITEL  = PAW_PBE O_GW 19Mar2012                                              
   LULTRA =        F    use ultrasoft PP ?                                      
   IUNSCR =        1    unscreen: 0-lin 1-nonlin 2-no                           
   RPACOR =    0.800    partial core radius                                     
   POMASS =   16.000; ZVAL   =    6.000    mass and valenz                      
   RCORE  =    1.600    outmost cutoff radius                                   
   RWIGS  =    1.600; RWIGS  =    0.847    wigner-seitz radius (au A)           
   ENMAX  =  434.431; ENMIN  =  325.824 eV                                      
   ICORE  =        3    local potential                                         
   LCOR   =        T    correct aug charges                                     
   LPAW   =        T    paw PP                                                  
   EAUG   = 1139.609                                                            
   DEXC   =    0.000                                                            
   RMAX   =    1.629    core radius for proj-oper                               
   RAUG   =    1.300    factor for augmentation sphere                          
   RDEP   =    1.652    radius for radial grids                                 
   RDEPT  =    1.200    core radius for aug-charge                              
                                                                                
   Atomic configuration                                                         
    5 entries                                                                   
     n  l   j            E        occ.                                          
     1  0  0.50      -514.6923   2.0000                                         
     2  0  0.50       -23.9615   2.0000                                         
     2  1  0.50        -9.0305   4.0000                                         
     3  2  1.50        -9.5241   0.0000                                         
     4  3  2.50        -9.5241   0.0000                                         
   Description                                                                  
     l       E           TYP  RCUT    TYP  RCUT                                 
     0    -23.9615316     23  1.150                                             
     0    -25.3221142     23  1.150                                             
     0    244.9048680     23  1.300                                             
     1     -9.0304908     23  1.500                                             
     1     -6.9258396     23  1.500                                             
     1    122.4524340     23  1.500                                             
     2     13.6058260     23  1.500                                             
     2    190.4815640     23  1.600                                             
     3     54.4233040     23  1.400                                             
  local pseudopotential read in
  partial core-charges read in
  partial kinetic energy density read in
  kinetic energy density of atom read in
  atomic valenz-charges read in
  non local Contribution for L=           0  read in
    real space projection operators read in
  non local Contribution for L=           0  read in
    real space projection operators read in
  non local Contribution for L=           0  read in
    real space projection operators read in
  non local Contribution for L=           1  read in
    real space projection operators read in
  non local Contribution for L=           1  read in
    real space projection operators read in
  non local Contribution for L=           1  read in
    real space projection operators read in
  non local Contribution for L=           2  read in
    real space projection operators read in
  non local Contribution for L=           2  read in
    real space projection operators read in
    PAW grid and wavefunctions read in
 
   number of l-projection  operators is LMAX  =           8
   number of lm-projection operators is LMMAX =          22
 
 Optimization of the real space projectors (new method)

 maximal supplied QI-value         = 19.84
 optimisation between [QCUT,QGAM] = [ 12.50, 25.00] = [ 43.76,175.03] Ry 
 Optimized for a Real-space Cutoff    1.31 Angstroem

   l    n(q)    QCUT    max X(q) W(low)/X(q) W(high)/X(q)  e(spline) 
   0     10    12.501     2.300    0.65E-05    0.25E-06    0.79E-07
   0     10    12.501     7.576    0.25E-04    0.52E-05    0.18E-06
   0     10    12.501     1.388    0.34E-04    0.75E-05    0.48E-06
   1      9    12.501    11.002    0.11E-03    0.24E-03    0.54E-06
   1      9    12.501    14.537    0.90E-04    0.23E-03    0.70E-06
   1      9    12.501     3.893    0.34E-04    0.51E-04    0.68E-06
   2      9    12.501    14.869    0.32E-03    0.35E-03    0.49E-06
   2      9    12.501     7.291    0.12E-03    0.20E-03    0.30E-06
   2      9    12.501     6.907    0.35E-03    0.37E-03    0.52E-06
   3      8    12.501    10.598    0.33E-03    0.15E-03    0.57E-06
   3      8    12.501     2.997    0.28E-03    0.16E-03    0.51E-06
 Optimization of the real space projectors (new method)

 maximal supplied QI-value         = 23.62
 optimisation between [QCUT,QGAM] = [ 12.52, 25.04] = [ 43.89,175.56] Ry 
 Optimized for a Real-space Cutoff    1.35 Angstroem

   l    n(q)    QCUT    max X(q) W(low)/X(q) W(high)/X(q)  e(spline) 
   0     10    12.519   116.464    0.13E-03    0.15E-03    0.46E-05
   0     10    12.519   116.329    0.13E-03    0.15E-03    0.44E-05
   0     10    12.519     0.942    0.35E-04    0.90E-04    0.23E-05
   1     10    12.519   133.003    0.28E-03    0.77E-04    0.26E-05
   1     10    12.519   116.443    0.28E-03    0.76E-04    0.26E-05
   1     10    12.519     2.481    0.45E-03    0.95E-04    0.45E-05
   2      9    12.519     2.237    0.21E-04    0.33E-04    0.21E-06
   2      9    12.519     2.497    0.16E-03    0.12E-03    0.32E-06
  PAW_PBE Ni_sv_GW 05Dec2013            :
 energy of atom  1       EATOM=-4642.8712
 kinetic energy error for atom=    0.0555 (will be added to EATOM!!)
  PAW_PBE O_GW 19Mar2012                :
 energy of atom  2       EATOM= -432.3788
 kinetic energy error for atom=    0.0188 (will be added to EATOM!!)
 
 
 POSCAR: NiO                                     
  positions in direct lattice
  No initial velocities read in
 exchange correlation table for  LEXCH =        8
   RHO(1)=    0.500       N(1)  =     2000
   RHO(2)=  100.500       N(2)  =     4000
 


--------------------------------------------------------------------------------------------------------


 ion  position               nearest neighbor table
   1  0.000  0.000  0.000-  41 2.09  42 2.09  49 2.09  51 2.09  57 2.09  61 2.09
   2  0.000  0.000  0.500-  41 2.09  42 2.09  50 2.09  52 2.09  58 2.09  62 2.09
   3  0.000  0.500  0.000-  43 2.09  44 2.09  49 2.09  51 2.09  59 2.09  63 2.09
   4  0.000  0.500  0.500-  43 2.09  44 2.09  50 2.09  52 2.09  60 2.09  64 2.09
   5  0.500  0.000  0.000-  45 2.09  46 2.09  53 2.09  55 2.09  57 2.09  61 2.09
   6  0.500  0.000  0.500-  45 2.09  46 2.09  54 2.09  56 2.09  58 2.09  62 2.09
   7  0.500  0.500  0.000-  47 2.09  48 2.09  53 2.09  55 2.09  59 2.09  63 2.09
   8  0.500  0.500  0.500-  47 2.09  48 2.09  54 2.09  56 2.09  60 2.09  64 2.09
   9  0.250  0.250  0.000-  33 2.09  34 2.09  49 2.09  53 2.09  57 2.09  59 2.09
  10  0.250  0.250  0.500-  33 2.09  34 2.09  50 2.09  54 2.09  58 2.09  60 2.09
  11  0.250  0.750  0.000-  35 2.09  36 2.09  51 2.09  55 2.09  57 2.09  59 2.09
  12  0.250  0.750  0.500-  35 2.09  36 2.09  52 2.09  56 2.09  58 2.09  60 2.09
  13  0.750  0.250  0.000-  37 2.09  38 2.09  49 2.09  53 2.09  61 2.09  63 2.09
  14  0.750  0.250  0.500-  37 2.09  38 2.09  50 2.09  54 2.09  62 2.09  64 2.09
  15  0.750  0.750  0.000-  39 2.09  40 2.09  51 2.09  55 2.09  61 2.09  63 2.09
  16  0.750  0.750  0.500-  39 2.09  40 2.09  52 2.09  56 2.09  62 2.09  64 2.09
  17  0.250  0.000  0.250-  33 2.09  35 2.09  41 2.09  45 2.09  57 2.09  58 2.09
  18  0.250  0.000  0.750-  34 2.09  36 2.09  42 2.09  46 2.09  57 2.09  58 2.09
  19  0.250  0.500  0.250-  33 2.09  35 2.09  43 2.09  47 2.09  59 2.09  60 2.09
  20  0.250  0.500  0.750-  34 2.09  36 2.09  44 2.09  48 2.09  59 2.09  60 2.09
  21  0.750  0.000  0.250-  37 2.09  39 2.09  41 2.09  45 2.09  61 2.09  62 2.09
  22  0.750  0.000  0.750-  38 2.09  40 2.09  42 2.09  46 2.09  61 2.09  62 2.09
  23  0.750  0.500  0.250-  37 2.09  39 2.09  43 2.09  47 2.09  63 2.09  64 2.09
  24  0.750  0.500  0.750-  38 2.09  40 2.09  44 2.09  48 2.09  63 2.09  64 2.09
  25  0.000  0.250  0.250-  33 2.09  37 2.09  41 2.09  43 2.09  49 2.09  50 2.09
  26  0.000  0.250  0.750-  34 2.09  38 2.09  42 2.09  44 2.09  49 2.09  50 2.09
  27  0.000  0.750  0.250-  35 2.09  39 2.09  41 2.09  43 2.09  51 2.09  52 2.09
  28  0.000  0.750  0.750-  36 2.09  40 2.09  42 2.09  44 2.09  51 2.09  52 2.09
  29  0.500  0.250  0.250-  33 2.09  37 2.09  45 2.09  47 2.09  53 2.09  54 2.09
  30  0.500  0.250  0.750-  34 2.09  38 2.09  46 2.09  48 2.09  53 2.09  54 2.09
  31  0.500  0.750  0.250-  35 2.09  39 2.09  45 2.09  47 2.09  55 2.09  56 2.09
  32  0.500  0.750  0.750-  36 2.09  40 2.09  46 2.09  48 2.09  55 2.09  56 2.09
  33  0.250  0.250  0.250-   9 2.09  10 2.09  17 2.09  19 2.09  25 2.09  29 2.09
  34  0.250  0.250  0.750-   9 2.09  10 2.09  18 2.09  20 2.09  26 2.09  30 2.09
  35  0.250  0.750  0.250-  11 2.09  12 2.09  17 2.09  19 2.09  27 2.09  31 2.09
  36  0.250  0.750  0.750-  11 2.09  12 2.09  18 2.09  20 2.09  28 2.09  32 2.09
  37  0.750  0.250  0.250-  13 2.09  14 2.09  21 2.09  23 2.09  25 2.09  29 2.09
  38  0.750  0.250  0.750-  13 2.09  14 2.09  22 2.09  24 2.09  26 2.09  30 2.09
  39  0.750  0.750  0.250-  15 2.09  16 2.09  21 2.09  23 2.09  27 2.09  31 2.09
  40  0.750  0.750  0.750-  15 2.09  16 2.09  22 2.09  24 2.09  28 2.09  32 2.09
  41  0.000  0.000  0.250-   1 2.09   2 2.09  17 2.09  21 2.09  25 2.09  27 2.09
  42  0.000  0.000  0.750-   1 2.09   2 2.09  18 2.09  22 2.09  26 2.09  28 2.09
  43  0.000  0.500  0.250-   3 2.09   4 2.09  19 2.09  23 2.09  25 2.09  27 2.09
  44  0.000  0.500  0.750-   3 2.09   4 2.09  20 2.09  24 2.09  26 2.09  28 2.09
  45  0.500  0.000  0.250-   5 2.09   6 2.09  17 2.09  21 2.09  29 2.09  31 2.09
  46  0.500  0.000  0.750-   5 2.09   6 2.09  18 2.09  22 2.09  30 2.09  32 2.09
  47  0.500  0.500  0.250-   7 2.09   8 2.09  19 2.09  23 2.09  29 2.09  31 2.09
  48  0.500  0.500  0.750-   7 2.09   8 2.09  20 2.09  24 2.09  30 2.09  32 2.09
  49  0.000  0.250  0.000-   1 2.09   3 2.09   9 2.09  13 2.09  25 2.09  26 2.09
  50  0.000  0.250  0.500-   2 2.09   4 2.09  10 2.09  14 2.09  25 2.09  26 2.09
  51  0.000  0.750  0.000-   1 2.09   3 2.09  11 2.09  15 2.09  27 2.09  28 2.09
  52  0.000  0.750  0.500-   2 2.09   4 2.09  12 2.09  16 2.09  27 2.09  28 2.09
  53  0.500  0.250  0.000-   5 2.09   7 2.09   9 2.09  13 2.09  29 2.09  30 2.09
  54  0.500  0.250  0.500-   6 2.09   8 2.09  10 2.09  14 2.09  29 2.09  30 2.09
  55  0.500  0.750  0.000-   5 2.09   7 2.09  11 2.09  15 2.09  31 2.09  32 2.09
  56  0.500  0.750  0.500-   6 2.09   8 2.09  12 2.09  16 2.09  31 2.09  32 2.09
  57  0.250  0.000  0.000-   1 2.09   5 2.09   9 2.09  11 2.09  17 2.09  18 2.09
  58  0.250  0.000  0.500-   2 2.09   6 2.09  10 2.09  12 2.09  17 2.09  18 2.09
  59  0.250  0.500  0.000-   3 2.09   7 2.09   9 2.09  11 2.09  19 2.09  20 2.09
  60  0.250  0.500  0.500-   4 2.09   8 2.09  10 2.09  12 2.09  19 2.09  20 2.09
  61  0.750  0.000  0.000-   1 2.09   5 2.09  13 2.09  15 2.09  21 2.09  22 2.09
  62  0.750  0.000  0.500-   2 2.09   6 2.09  14 2.09  16 2.09  21 2.09  22 2.09
  63  0.750  0.500  0.000-   3 2.09   7 2.09  13 2.09  15 2.09  23 2.09  24 2.09
  64  0.750  0.500  0.500-   4 2.09   8 2.09  14 2.09  16 2.09  23 2.09  24 2.09
 
  LATTYP: Found a simple cubic cell.
 ALAT       =     8.3476610000
  
  Lattice vectors:
  
 A1 = (   8.3476610000,   0.0000000000,   0.0000000000)
 A2 = (   0.0000000000,   8.3476610000,   0.0000000000)
 A3 = (   0.0000000000,   0.0000000000,   8.3476610000)


Analysis of symmetry for initial positions (statically):
=====================================================================
 Subroutine PRICEL returns following result:
 
  LATTYP: Found a face centered cubic cell.
 ALAT       =     4.1738305000
  
  Lattice vectors:
  
 A1 = (   2.0869152500,   2.0869152500,   0.0000000000)
 A2 = (   2.0869152500,   0.0000000000,  -2.0869152500)
 A3 = (   0.0000000000,   2.0869152500,  -2.0869152500)
 
  32 primitive cells build up your supercell.
 

 Routine SETGRP: Setting up the symmetry group for a 
 simple cubic supercell.


 Subroutine GETGRP returns: Found 48 space group operations
 (whereof 48 operations were pure point group operations)
 out of a pool of 48 trial point group operations.


The static configuration has the point symmetry O_h .


Analysis of symmetry for dynamics (positions and initial velocities):
=====================================================================
 Subroutine PRICEL returns following result:
 
  LATTYP: Found a face centered cubic cell.
 ALAT       =     4.1738305000
  
  Lattice vectors:
  
 A1 = (   2.0869152500,   2.0869152500,   0.0000000000)
 A2 = (   2.0869152500,   0.0000000000,  -2.0869152500)
 A3 = (   0.0000000000,   2.0869152500,  -2.0869152500)
 
  32 primitive cells build up your supercell.
 

 Routine SETGRP: Setting up the symmetry group for a 
 simple cubic supercell.


 Subroutine GETGRP returns: Found 48 space group operations
 (whereof 48 operations were pure point group operations)
 out of a pool of 48 trial point group operations.


The dynamic configuration has the point symmetry O_h .


Analysis of structural, dynamic, and magnetic symmetry:
=====================================================================
 Subroutine PRICEL returns following result:
 
  LATTYP: Found a face centered cubic cell.
 ALAT       =     4.1738305000
  
  Lattice vectors:
  
 A1 = (   2.0869152500,   2.0869152500,   0.0000000000)
 A2 = (   2.0869152500,   0.0000000000,  -2.0869152500)
 A3 = (   0.0000000000,   2.0869152500,  -2.0869152500)
 
  32 primitive cells build up your supercell.
 

 Routine SETGRP: Setting up the symmetry group for a 
 simple cubic supercell.


 Subroutine GETGRP returns: Found 16 space group operations
 (whereof 16 operations were pure point group operations)
 out of a pool of 48 trial point group operations.


The magnetic configuration has the point symmetry D_4h.


 Subroutine INISYM returns: Found 16 space group operations
 (whereof 16 operations are pure point group operations),
 and found    32 'primitive' translations

 
 
 KPOINTS: k-points                                

Automatic generation of k-mesh.
Space group operators:
 irot       det(A)        alpha          n_x          n_y          n_z        tau_x        tau_y        tau_z
    1     1.000000     0.000000     1.000000     0.000000     0.000000     0.000000     0.000000     0.000000
    2    -1.000000     0.000000     1.000000     0.000000     0.000000     0.000000     0.000000     0.000000
    3     1.000000    90.000000     0.000000     0.000000    -1.000000     0.000000     0.000000     0.000000
    4    -1.000000    90.000000     0.000000     0.000000    -1.000000     0.000000     0.000000     0.000000
    5     1.000000   180.000000     0.000000     0.000000     1.000000     0.000000     0.000000     0.000000
    6    -1.000000   180.000000     0.000000     0.000000     1.000000     0.000000     0.000000     0.000000
    7     1.000000    90.000000     0.000000     0.000000     1.000000     0.000000     0.000000     0.000000
    8    -1.000000    90.000000     0.000000     0.000000     1.000000     0.000000     0.000000     0.000000
    9     1.000000   180.000000     1.000000     0.000000     0.000000     0.000000     0.000000     0.000000
   10    -1.000000   180.000000     1.000000     0.000000     0.000000     0.000000     0.000000     0.000000
   11     1.000000   180.000000     0.707107     0.707107     0.000000     0.000000     0.000000     0.000000
   12    -1.000000   180.000000     0.707107     0.707107     0.000000     0.000000     0.000000     0.000000
   13     1.000000   180.000000     0.000000     1.000000     0.000000     0.000000     0.000000     0.000000
   14    -1.000000   180.000000     0.000000     1.000000     0.000000     0.000000     0.000000     0.000000
   15     1.000000   180.000000     0.707107    -0.707107     0.000000     0.000000     0.000000     0.000000
   16    -1.000000   180.000000     0.707107    -0.707107     0.000000     0.000000     0.000000     0.000000
 
 Subroutine IBZKPT returns following result:
 ===========================================
 
 Found      6 irreducible k-points:
 
 Following reciprocal coordinates:
            Coordinates               Weight
  0.000000  0.000000  0.000000      1.000000
  0.333333  0.000000  0.000000      4.000000
  0.333333  0.333333  0.000000      4.000000
  0.000000  0.000000  0.333333      2.000000
  0.333333  0.000000  0.333333      8.000000
  0.333333  0.333333  0.333333      8.000000
 
 Following cartesian coordinates:
            Coordinates               Weight
  0.000000  0.000000  0.000000      1.000000
  0.333333  0.000000  0.000000      4.000000
  0.333333  0.333333  0.000000      4.000000
  0.000000  0.000000  0.333333      2.000000
  0.333333  0.000000  0.333333      8.000000
  0.333333  0.333333  0.333333      8.000000
 


--------------------------------------------------------------------------------------------------------




 Dimension of arrays:
   k-points           NKPTS =      6   k-points in BZ     NKDIM =      6   number of bands    NBANDS=    460
   number of dos      NEDOS =    301   number of ions     NIONS =     64
   non local maximal  LDIM  =     11   non local SUM 2l+1 LMDIM =     41
   total plane-waves  NPLWV = 125000
   max r-space proj   IRMAX =   2244   max aug-charges    IRDMAX=   4943
   dimension x,y,z NGX =    50 NGY =   50 NGZ =   50
   dimension x,y,z NGXF=   100 NGYF=  100 NGZF=  100
   support grid    NGXF=   100 NGYF=  100 NGZF=  100
   ions per type =              32  32
   NGX,Y,Z   is equivalent  to a cutoff of   9.96,  9.96,  9.96 a.u.
   NGXF,Y,Z  is equivalent  to a cutoff of  19.92, 19.92, 19.92 a.u.

 SYSTEM =  NiO                                     
 POSCAR =  NiO                                     

 Startparameter for this run:
   NWRITE =      2    write-flag & timer
   PREC   = normal    normal or accurate (medium, high low for compatibility)
   ISTART =      0    job   : 0-new  1-cont  2-samecut
   ICHARG =      2    charge: 1-file 2-atom 10-const
   ISPIN  =      2    spin polarized calculation?
   LNONCOLLINEAR =      F non collinear calculations
   LSORBIT =      F    spin-orbit coupling
   INIWAV =      1    electr: 0-lowe 1-rand  2-diag
   LASPH  =      F    aspherical Exc in radial PAW
   METAGGA=      F    non-selfconsistent MetaGGA calc.

 Electronic Relaxation 1
   ENCUT  =  600.0 eV  44.10 Ry    6.64 a.u.  16.67 16.67 16.67*2*pi/ulx,y,z
   ENINI  =  600.0     initial cutoff
   ENAUG  = 1200.0 eV  augmentation charge cutoff
   NELM   =    100;   NELMIN=  2; NELMDL= -5     # of ELM steps 
   EDIFF  = 0.1E-05   stopping-criterion for ELM
   LREAL  =      T    real-space projection
   NLSPLINE    = F    spline interpolate recip. space projectors
   LCOMPAT=      F    compatible to vasp.4.4
   GGA_COMPAT  = T    GGA compatible to vasp.4.4-vasp.4.6
   LMAXPAW     = -100 max onsite density
   LMAXMIX     =    4 max onsite mixed and CHGCAR
   VOSKOWN=      0    Vosko Wilk Nusair interpolation
   ROPT   =   -0.00050  -0.00050
 Ionic relaxation
   EDIFFG = -.1E-03   stopping-criterion for IOM
   NSW    =      0    number of steps for IOM
   NBLOCK =      1;   KBLOCK =      1    inner block; outer block 
   IBRION =     -1    ionic relax: 0-MD 1-quasi-New 2-CG
   NFREE  =      1    steps in history (QN), initial steepest desc. (CG)
   ISIF   =      2    stress and relaxation
   IWAVPR =     10    prediction:  0-non 1-charg 2-wave 3-comb
   ISYM   =      2    0-nonsym 1-usesym 2-fastsym
   LCORR  =      T    Harris-Foulkes like correction to forces

   POTIM  = 0.2000    time-step for ionic-motion
   TEIN   =    0.0    initial temperature
   TEBEG  =    0.0;   TEEND  =   0.0 temperature during run
   SMASS  =  -3.00    Nose mass-parameter (am)
   estimated Nose-frequenzy (Omega)   =  0.10E-29 period in steps =****** mass=  -0.159E-26a.u.
   SCALEE = 1.0000    scale energy and forces
   NPACO  =    256;   APACO  = 16.0  distance and # of slots for P.C.
   PSTRESS=    0.0 pullay stress

  Mass of Ions in am
   POMASS =  58.69 16.00
  Ionic Valenz
   ZVAL   =  18.00  6.00
  Atomic Wigner-Seitz radii
   RWIGS  =  -1.00 -1.00
  virtual crystal weights 
   VCA    =   1.00  1.00
   NELECT =     768.0000    total number of electrons
   NUPDOWN=      -1.0000    fix difference up-down

 DOS related values:
   EMIN   =  10.00;   EMAX   =-10.00  energy-range for DOS
   EFERMI =   0.00
   ISMEAR =     0;   SIGMA  =   0.00  broadening in eV -4-tet -1-fermi 0-gaus

 Electronic relaxation 2 (details)
   IALGO  =     38    algorithm
   LDIAG  =      T    sub-space diagonalisation (order eigenvalues)
   LSUBROT=      F    optimize rotation matrix (better conditioning)
   TURBO    =      0    0=normal 1=particle mesh
   IRESTART =      0    0=no restart 2=restart with 2 vectors
   NREBOOT  =      0    no. of reboots
   NMIN     =      0    reboot dimension
   EREF     =   0.00    reference energy to select bands
   IMIX   =      4    mixing-type and parameters
     AMIX     =   0.40;   BMIX     =  1.00
     AMIX_MAG =   1.60;   BMIX_MAG =  1.00
     AMIN     =   0.10
     WC   =   100.;   INIMIX=   1;  MIXPRE=   1;  MAXMIX= -45

 Intra band minimization:
   WEIMIN = 0.0000     energy-eigenvalue tresh-hold
   EBREAK =  0.54E-09  absolut break condition
   DEPER  =   0.30     relativ break condition  

   TIME   =   0.40     timestep for ELM

  volume/ion in A,a.u.               =       9.09        61.34
  Fermi-wavevector in a.u.,A,eV,Ry     =   1.795962  3.393876 43.885304  3.225479
  Thomas-Fermi vector in A             =   2.857607
 
 Write flags
   LWAVE        =      T    write WAVECAR
   LDOWNSAMPLE  =      F    k-point downsampling of WAVECAR
   LCHARG       =      T    write CHGCAR
   LVTOT        =      F    write LOCPOT, total local potential
   LVHAR        =      F    write LOCPOT, Hartree potential only
   LELF         =      F    write electronic localiz. function (ELF)
   LORBIT       =     11    0 simple, 1 ext, 2 COOP (PROOUT), +10 PAW based schemes


 Dipole corrections
   LMONO  =      F    monopole corrections only (constant potential shift)
   LDIPOL =      F    correct potential (dipole corrections)
   IDIPOL =      0    1-x, 2-y, 3-z, 4-all directions 
   EPSILON=  1.0000000 bulk dielectric constant

 Exchange correlation treatment:
   GGA     =    --    GGA type
   LEXCH   =     8    internal setting for exchange type
   VOSKOWN=      0    Vosko Wilk Nusair interpolation
   LHFCALC =     F    Hartree Fock is set to
   LHFONE  =     F    Hartree Fock one center treatment
   AEXX    =    0.0000 exact exchange contribution

 Linear response parameters
   LEPSILON=     F    determine dielectric tensor
   LRPA    =     F    only Hartree local field effects (RPA)
   LNABLA  =     F    use nabla operator in PAW spheres
   LVEL    =     F    velocity operator in full k-point grid
   LINTERFAST=   F  fast interpolation
   KINTER  =     0    interpolate to denser k-point grid
   CSHIFT  =0.1000    complex shift for real part using Kramers Kronig
   OMEGAMAX=  -1.0    maximum frequency
   DEG_THRESHOLD= 0.2000000E-02 threshold for treating states as degnerate
   RTIME   =   -0.100 relaxation time in fs
  (WPLASMAI=    0.000 imaginary part of plasma frequency in eV, 0.658/RTIME)
   DFIELD  = 0.0000000 0.0000000 0.0000000 field for delta impulse in time
 
 Orbital magnetization related:
   ORBITALMAG=     F  switch on orbital magnetization
   LCHIMAG   =     F  perturbation theory with respect to B field
   DQ        =  0.001000  dq finite difference perturbation B field
   LLRAUG    =     F  two centre corrections for induced B field



--------------------------------------------------------------------------------------------------------


 Static calculation
 charge density and potential will be updated during run
 spin polarized calculation
 Variant of blocked Davidson
 Davidson routine will perform the subspace rotation
 perform sub-space diagonalisation
    after iterative eigenvector-optimisation
 modified Broyden-mixing scheme, WC =      100.0
 initial mixing is a Kerker type mixing with AMIX =  0.4000 and BMIX =      1.0000
 Hartree-type preconditioning will be used
 using additional bands           76
 real space projection scheme for non local part
 use partial core corrections
 calculate Harris-corrections to forces 
   (improved forces if not selfconsistent)
 use gradient corrections 
 use of overlap-Matrix (Vanderbilt PP)
 Gauss-broadening in eV      SIGMA  =   0.00


--------------------------------------------------------------------------------------------------------


  energy-cutoff  :      600.00
  volume of cell :      581.69
      direct lattice vectors                 reciprocal lattice vectors
     8.347661000  0.000000000  0.000000000     0.119794036  0.000000000  0.000000000
     0.000000000  8.347661000  0.000000000     0.000000000  0.119794036  0.000000000
     0.000000000  0.000000000  8.347661000     0.000000000  0.000000000  0.119794036

  length of vectors
     8.347661000  8.347661000  8.347661000     0.119794036  0.119794036  0.119794036


 
 k-points in units of 2pi/SCALE and weight: k-points                                
   0.00000000  0.00000000  0.00000000       0.037
   0.33333333  0.00000000  0.00000000       0.148
   0.33333333  0.33333333  0.00000000       0.148
   0.00000000  0.00000000  0.33333333       0.074
   0.33333333  0.00000000  0.33333333       0.296
   0.33333333  0.33333333  0.33333333       0.296
 
 k-points in reciprocal lattice and weights: k-points                                
   0.00000000  0.00000000  0.00000000       0.037
   0.33333333  0.00000000  0.00000000       0.148
   0.33333333  0.33333333  0.00000000       0.148
   0.00000000  0.00000000  0.33333333       0.074
   0.33333333  0.00000000  0.33333333       0.296
   0.33333333  0.33333333  0.33333333       0.296
 
 position of ions in fractional coordinates (direct lattice) 
   0.00000000  0.00000000  0.00000000
   0.00000000  0.00000000  0.50000000
   0.00000000  0.50000000  0.00000000
   0.00000000  0.50000000  0.50000000
   0.50000000  0.00000000  0.00000000
   0.50000000  0.00000000  0.50000000
   0.50000000  0.50000000  0.00000000
   0.50000000  0.50000000  0.50000000
   0.25000000  0.25000000  0.00000000
   0.25000000  0.25000000  0.50000000
   0.25000000  0.75000000  0.00000000
   0.25000000  0.75000000  0.50000000
   0.75000000  0.25000000  0.00000000
   0.75000000  0.25000000  0.50000000
   0.75000000  0.75000000  0.00000000
   0.75000000  0.75000000  0.50000000
   0.25000000  0.00000000  0.25000000
   0.25000000  0.00000000  0.75000000
   0.25000000  0.50000000  0.25000000
   0.25000000  0.50000000  0.75000000
   0.75000000  0.00000000  0.25000000
   0.75000000  0.00000000  0.75000000
   0.75000000  0.50000000  0.25000000
   0.75000000  0.50000000  0.75000000
   0.00000000  0.25000000  0.25000000
   0.00000000  0.25000000  0.75000000
   0.00000000  0.75000000  0.25000000
   0.00000000  0.75000000  0.75000000
   0.50000000  0.25000000  0.25000000
   0.50000000  0.25000000  0.75000000
   0.50000000  0.75000000  0.25000000
   0.50000000  0.75000000  0.75000000
   0.25000000  0.25000000  0.25000000
   0.25000000  0.25000000  0.75000000
   0.25000000  0.75000000  0.25000000
   0.25000000  0.75000000  0.75000000
   0.75000000  0.25000000  0.25000000
   0.75000000  0.25000000  0.75000000
   0.75000000  0.75000000  0.25000000
   0.75000000  0.75000000  0.75000000
   0.00000000  0.00000000  0.25000000
   0.00000000  0.00000000  0.75000000
   0.00000000  0.50000000  0.25000000
   0.00000000  0.50000000  0.75000000
   0.50000000  0.00000000  0.25000000
   0.50000000  0.00000000  0.75000000
   0.50000000  0.50000000  0.25000000
   0.50000000  0.50000000  0.75000000
   0.00000000  0.25000000  0.00000000
   0.00000000  0.25000000  0.50000000
   0.00000000  0.75000000  0.00000000
   0.00000000  0.75000000  0.50000000
   0.50000000  0.25000000  0.00000000
   0.50000000  0.25000000  0.50000000
   0.50000000  0.75000000  0.00000000
   0.50000000  0.75000000  0.50000000
   0.25000000  0.00000000  0.00000000
   0.25000000  0.00000000  0.50000000
   0.25000000  0.50000000  0.00000000
   0.25000000  0.50000000  0.50000000
   0.75000000  0.00000000  0.00000000
   0.75000000  0.00000000  0.50000000
   0.75000000  0.50000000  0.00000000
   0.75000000  0.50000000  0.50000000
 
 position of ions in cartesian coordinates  (Angst):
   0.00000000  0.00000000  0.00000000
   0.00000000  0.00000000  4.17383050
   0.00000000  4.17383050  0.00000000
   0.00000000  4.17383050  4.17383050
   4.17383050  0.00000000  0.00000000
   4.17383050  0.00000000  4.17383050
   4.17383050  4.17383050  0.00000000
   4.17383050  4.17383050  4.17383050
   2.08691525  2.08691525  0.00000000
   2.08691525  2.08691525  4.17383050
   2.08691525  6.26074575  0.00000000
   2.08691525  6.26074575  4.17383050
   6.26074575  2.08691525  0.00000000
   6.26074575  2.08691525  4.17383050
   6.26074575  6.26074575  0.00000000
   6.26074575  6.26074575  4.17383050
   2.08691525  0.00000000  2.08691525
   2.08691525  0.00000000  6.26074575
   2.08691525  4.17383050  2.08691525
   2.08691525  4.17383050  6.26074575
   6.26074575  0.00000000  2.08691525
   6.26074575  0.00000000  6.26074575
   6.26074575  4.17383050  2.08691525
   6.26074575  4.17383050  6.26074575
   0.00000000  2.08691525  2.08691525
   0.00000000  2.08691525  6.26074575
   0.00000000  6.26074575  2.08691525
   0.00000000  6.26074575  6.26074575
   4.17383050  2.08691525  2.08691525
   4.17383050  2.08691525  6.26074575
   4.17383050  6.26074575  2.08691525
   4.17383050  6.26074575  6.26074575
   2.08691525  2.08691525  2.08691525
   2.08691525  2.08691525  6.26074575
   2.08691525  6.26074575  2.08691525
   2.08691525  6.26074575  6.26074575
   6.26074575  2.08691525  2.08691525
   6.26074575  2.08691525  6.26074575
   6.26074575  6.26074575  2.08691525
   6.26074575  6.26074575  6.26074575
   0.00000000  0.00000000  2.08691525
   0.00000000  0.00000000  6.26074575
   0.00000000  4.17383050  2.08691525
   0.00000000  4.17383050  6.26074575
   4.17383050  0.00000000  2.08691525
   4.17383050  0.00000000  6.26074575
   4.17383050  4.17383050  2.08691525
   4.17383050  4.17383050  6.26074575
   0.00000000  2.08691525  0.00000000
   0.00000000  2.08691525  4.17383050
   0.00000000  6.26074575  0.00000000
   0.00000000  6.26074575  4.17383050
   4.17383050  2.08691525  0.00000000
   4.17383050  2.08691525  4.17383050
   4.17383050  6.26074575  0.00000000
   4.17383050  6.26074575  4.17383050
   2.08691525  0.00000000  0.00000000
   2.08691525  0.00000000  4.17383050
   2.08691525  4.17383050  0.00000000
   2.08691525  4.17383050  4.17383050
   6.26074575  0.00000000  0.00000000
   6.26074575  0.00000000  4.17383050
   6.26074575  4.17383050  0.00000000
   6.26074575  4.17383050  4.17383050
 


--------------------------------------------------------------------------------------------------------


 k-point  1 :   0.0000 0.0000 0.0000  plane waves:   19381
 k-point  2 :   0.3333 0.0000 0.0000  plane waves:   19438
 k-point  3 :   0.3333 0.3333 0.0000  plane waves:   19402
 k-point  4 :   0.0000 0.0000 0.3333  plane waves:   19438
 k-point  5 :   0.3333 0.0000 0.3333  plane waves:   19402
 k-point  6 :   0.3333 0.3333 0.3333  plane waves:   19393

 maximum and minimum number of plane-waves per node :     19438    19381

 maximum number of plane-waves:     19438
 maximum index in each direction: 
   IXMAX=   16   IYMAX=   16   IZMAX=   16
   IXMIN=  -17   IYMIN=  -17   IZMIN=  -17


 serial   3D FFT for wavefunctions
 parallel 3D FFT for charge:
    minimum data exchange during FFTs selected (reduces bandwidth)


 total amount of memory used by VASP MPI-rank0  2099343. kBytes
=======================================================================

   base      :      30000. kBytes
   nonlr-proj:      38118. kBytes
   fftplans  :      34720. kBytes
   grid      :      91360. kBytes
   one-center:      10328. kBytes
   wavefun   :    1894817. kBytes
 
     INWAV:  cpu time    0.0001: real time    0.0000
 Broyden mixing: mesh for mixing (old mesh)
   NGX = 33   NGY = 33   NGZ = 33
  (NGX  =100   NGY  =100   NGZ  =100)
  gives a total of  35937 points

 initial charge density was supplied:
 charge density of overlapping atoms calculated
 number of electron     768.0000000 magnetization       0.0000000
 keeping initial charge density in first step


--------------------------------------------------------------------------------------------------------


 Maximum index for non-local projection operator         2176
 Maximum index for augmentation-charges         4625 (set IRDMAX)


--------------------------------------------------------------------------------------------------------


 First call to EWALD:  gamma=   0.212
 Maximum number of real-space cells 3x 3x 3
 Maximum number of reciprocal cells 3x 3x 3

    FEWALD:  cpu time    0.0120: real time    0.0121


----------------------------------------- Iteration    1(   1)  ---------------------------------------


    POTLOK:  cpu time    0.9564: real time    0.9560
    SETDIJ:  cpu time    0.3918: real time    0.3918
     EDDAV:  cpu time   15.5906: real time   15.5904
       DOS:  cpu time    0.0080: real time    0.0080
    --------------------------------------------
      LOOP:  cpu time   16.9489: real time   16.9484

 eigenvalue-minimisations  : 13048
 total energy-change (2. order) : 0.3364619E+05  (-0.2277677E+05)
 number of electron     768.0000000 magnetization       0.0000000
 augmentation part      768.0000000 magnetization       0.0000000

 Free energy of the ion-electron system (eV)
  ---------------------------------------------------
  alpha Z        PSCENC =      5454.96200761
  Ewald energy   TEWEN  =   -104104.01822134
  -Hartree energ DENC   =    -49761.43779155
  -exchange      EXHF   =         0.00000000
  -V(xc)+E(xc)   XCENC  =      5194.83898885
  PAW double counting   =    134449.21163418  -140263.96355224
  entropy T*S    EENTRO =        -0.00006658
  eigenvalues    EBANDS =     20270.97006488
  atomic energy  EATOM  =    162405.62235658
  Solvation  Ediel_sol  =         0.00000000
  ---------------------------------------------------
  free energy    TOTEN  =     33646.18542039 eV

  energy without entropy =    33646.18548697  energy(sigma->0) =    33646.18545368


--------------------------------------------------------------------------------------------------------




----------------------------------------- Iteration    1(   2)  ---------------------------------------


     EDDAV:  cpu time   16.2955: real time   16.2960
       DOS:  cpu time    0.0084: real time    0.0084
    --------------------------------------------
      LOOP:  cpu time   16.3044: real time   16.3049

 eigenvalue-minimisations  : 13912
 total energy-change (2. order) :-0.1986993E+05  (-0.1786446E+05)
 number of electron     768.0000000 magnetization       0.0000000
 augmentation part      768.0000000 magnetization       0.0000000

 Free energy of the ion-electron system (eV)
  ---------------------------------------------------
  alpha Z        PSCENC =      5454.96200761
  Ewald energy   TEWEN  =   -104104.01822134
  -Hartree energ DENC   =    -49761.43779155
  -exchange      EXHF   =         0.00000000
  -V(xc)+E(xc)   XCENC  =      5194.83898885
  PAW double counting   =    134449.21163418  -140263.96355224
  entropy T*S    EENTRO =        -0.00007945
  eigenvalues    EBANDS =       401.03927539
  atomic energy  EATOM  =    162405.62235658
  Solvation  Ediel_sol  =         0.00000000
  ---------------------------------------------------
  free energy    TOTEN  =     13776.25461804 eV

  energy without entropy =    13776.25469748  energy(sigma->0) =    13776.25465776


--------------------------------------------------------------------------------------------------------




----------------------------------------- Iteration    1(   3)  ---------------------------------------


     EDDAV:  cpu time   17.9672: real time   17.9799
       DOS:  cpu time    0.0084: real time    0.0084
    --------------------------------------------
      LOOP:  cpu time   17.9761: real time   17.9888

 eigenvalue-minimisations  : 16256
 total energy-change (2. order) :-0.9306777E+04  (-0.8730404E+04)
 number of electron     768.0000000 magnetization       0.0000000
 augmentation part      768.0000000 magnetization       0.0000000

 Free energy of the ion-electron system (eV)
  ---------------------------------------------------
  alpha Z        PSCENC =      5454.96200761
  Ewald energy   TEWEN  =   -104104.01822134
  -Hartree energ DENC   =    -49761.43779155
  -exchange      EXHF   =         0.00000000
  -V(xc)+E(xc)   XCENC  =      5194.83898885
  PAW double counting   =    134449.21163418  -140263.96355224
  entropy T*S    EENTRO =        -0.00007945
  eigenvalues    EBANDS =     -8905.73763603
  atomic energy  EATOM  =    162405.62235658
  Solvation  Ediel_sol  =         0.00000000
  ---------------------------------------------------
  free energy    TOTEN  =      4469.47770662 eV

  energy without entropy =     4469.47778607  energy(sigma->0) =     4469.47774634


--------------------------------------------------------------------------------------------------------




----------------------------------------- Iteration    1(   4)  ---------------------------------------


     EDDAV:  cpu time   21.4687: real time   21.4811
       DOS:  cpu time    0.0083: real time    0.0083
    --------------------------------------------
      LOOP:  cpu time   21.4774: real time   21.4899

 eigenvalue-minimisations  : 20700
 total energy-change (2. order) :-0.3421652E+04  (-0.3179230E+04)
 number of electron     768.0000000 magnetization       0.0000000
 augmentation part      768.0000000 magnetization       0.0000000

 Free energy of the ion-electron system (eV)
  ---------------------------------------------------
  alpha Z        PSCENC =      5454.96200761
  Ewald energy   TEWEN  =   -104104.01822134
  -Hartree energ DENC   =    -49761.43779155
  -exchange      EXHF   =         0.00000000
  -V(xc)+E(xc)   XCENC  =      5194.83898885
  PAW double counting   =    134449.21163418  -140263.96355224
  entropy T*S    EENTRO =        -0.00007945
  eigenvalues    EBANDS =    -12327.38957373
  atomic energy  EATOM  =    162405.62235658
  Solvation  Ediel_sol  =         0.00000000
  ---------------------------------------------------
  free energy    TOTEN  =      1047.82576892 eV

  energy without entropy =     1047.82584836  energy(sigma->0) =     1047.82580864


--------------------------------------------------------------------------------------------------------




----------------------------------------- Iteration    1(   5)  ---------------------------------------


     EDDAV:  cpu time   22.0325: real time   22.0515
       DOS:  cpu time    0.0075: real time    0.0075
    CHARGE:  cpu time    4.3318: real time    4.3314
    MIXING:  cpu time    0.0236: real time    0.0236
    --------------------------------------------
      LOOP:  cpu time   26.3959: real time   26.4145

 eigenvalue-minimisations  : 21456
 total energy-change (2. order) :-0.1044710E+04  (-0.9121864E+03)
 number of electron     768.0004330 magnetization       0.0000000
 augmentation part      294.9396872 magnetization       0.0000000

 Broyden mixing:
  rms(total) = 0.15077E+02    rms(broyden)= 0.15075E+02
  rms(prec ) = 0.15778E+02
  weight for this iteration     100.00

 Free energy of the ion-electron system (eV)
  ---------------------------------------------------
  alpha Z        PSCENC =      5454.96200761
  Ewald energy   TEWEN  =   -104104.01822134
  -Hartree energ DENC   =    -49761.43779155
  -exchange      EXHF   =         0.00000000
  -V(xc)+E(xc)   XCENC  =      5194.83898885
  PAW double counting   =    134449.21163418  -140263.96355224
  entropy T*S    EENTRO =        -0.00012878
  eigenvalues    EBANDS =    -13372.09904411
  atomic energy  EATOM  =    162405.62235658
  Solvation  Ediel_sol  =         0.00000000
  ---------------------------------------------------
  free energy    TOTEN  =         3.11624920 eV

  energy without entropy =        3.11637798  energy(sigma->0) =        3.11631359


--------------------------------------------------------------------------------------------------------




----------------------------------------- Iteration    1(   6)  ---------------------------------------


    POTLOK:  cpu time    0.9650: real time    0.9647
    SETDIJ:  cpu time    0.4084: real time    0.4083
     EDDAV:  cpu time   21.9952: real time   22.0386
       DOS:  cpu time    0.0082: real time    0.0082
    CHARGE:  cpu time    4.2912: real time    4.2906
    MIXING:  cpu time    0.0240: real time    0.0240
    --------------------------------------------
      LOOP:  cpu time   27.6926: real time   27.7350

 eigenvalue-minimisations  : 21784
 total energy-change (2. order) :-0.2962095E+03  (-0.3346668E+03)
 number of electron     768.0004124 magnetization       0.0000000
 augmentation part      312.0861715 magnetization       0.0000000

 Broyden mixing:
  rms(total) = 0.38984E+01    rms(broyden)= 0.38930E+01
  rms(prec ) = 0.48654E+01
  weight for this iteration     100.00

 eigenvalues of (default mixing * dielectric matrix)
  average eigenvalue GAMMA=   0.9362
  0.9362

 Free energy of the ion-electron system (eV)
  ---------------------------------------------------
  alpha Z        PSCENC =      5454.96200761
  Ewald energy   TEWEN  =   -104104.01822134
  -Hartree energ DENC   =    -47646.10972305
  -exchange      EXHF   =         0.00000000
  -V(xc)+E(xc)   XCENC  =      5105.92975629
  PAW double counting   =    141178.27717925  -146976.26205129
  entropy T*S    EENTRO =        -0.00006997
  eigenvalues    EBANDS =    -15711.49449238
  atomic energy  EATOM  =    162405.62235658
  Solvation  Ediel_sol  =         0.00000000
  ---------------------------------------------------
  free energy    TOTEN  =      -293.09325831 eV

  energy without entropy =     -293.09318833  energy(sigma->0) =     -293.09322332


--------------------------------------------------------------------------------------------------------




----------------------------------------- Iteration    1(   7)  ---------------------------------------


    POTLOK:  cpu time    0.9544: real time    0.9542
    SETDIJ:  cpu time    0.4084: real time    0.4083
     EDDAV:  cpu time   20.9942: real time   21.0294
       DOS:  cpu time    0.0092: real time    0.0092
    CHARGE:  cpu time    4.3476: real time    4.3471
    MIXING:  cpu time    0.0283: real time    0.0283
    --------------------------------------------
      LOOP:  cpu time   26.7426: real time   26.7770

 eigenvalue-minimisations  : 20284
 total energy-change (2. order) :-0.7446105E+02  (-0.9845248E+02)
 number of electron     768.0003924 magnetization       0.0000000
 augmentation part      311.0300361 magnetization       0.0000000

 Broyden mixing:
  rms(total) = 0.23666E+01    rms(broyden)= 0.23652E+01
  rms(prec ) = 0.29427E+01
  weight for this iteration     100.00

 eigenvalues of (default mixing * dielectric matrix)
  average eigenvalue GAMMA=   0.9678
  0.9678  0.9678

 Free energy of the ion-electron system (eV)
  ---------------------------------------------------
  alpha Z        PSCENC =      5454.96200761
  Ewald energy   TEWEN  =   -104104.01822134
  -Hartree energ DENC   =    -47367.17154748
  -exchange      EXHF   =         0.00000000
  -V(xc)+E(xc)   XCENC  =      5112.01461163
  PAW double counting   =    142903.44441253  -148929.42553366
  entropy T*S    EENTRO =        -0.00012180
  eigenvalues    EBANDS =    -15842.98227644
  atomic energy  EATOM  =    162405.62235658
  Solvation  Ediel_sol  =         0.00000000
  ---------------------------------------------------
  free energy    TOTEN  =      -367.55431238 eV

  energy without entropy =     -367.55419058  energy(sigma->0) =     -367.55425148


--------------------------------------------------------------------------------------------------------




----------------------------------------- Iteration    1(   8)  ---------------------------------------


    POTLOK:  cpu time    0.9644: real time    0.9639
    SETDIJ:  cpu time    0.4082: real time    0.4082
     EDDAV:  cpu time   21.0743: real time   21.0908
       DOS:  cpu time    0.0082: real time    0.0082
    CHARGE:  cpu time    4.3571: real time    4.3566
    MIXING:  cpu time    0.0298: real time    0.0297
    --------------------------------------------
      LOOP:  cpu time   26.8427: real time   26.8581

 eigenvalue-minimisations  : 20352
 total energy-change (2. order) :-0.1810492E+02  (-0.2638151E+02)
 number of electron     768.0003971 magnetization       0.0000000
 augmentation part      312.0664506 magnetization       0.0000000

 Broyden mixing:
  rms(total) = 0.12744E+01    rms(broyden)= 0.12740E+01
  rms(prec ) = 0.14399E+01
  weight for this iteration     100.00

 eigenvalues of (default mixing * dielectric matrix)
  average eigenvalue GAMMA=   1.0523
  0.8796  1.1387  1.1387

 Free energy of the ion-electron system (eV)
  ---------------------------------------------------
  alpha Z        PSCENC =      5454.96200761
  Ewald energy   TEWEN  =   -104104.01822134
  -Hartree energ DENC   =    -47449.58827083
  -exchange      EXHF   =         0.00000000
  -V(xc)+E(xc)   XCENC  =      5126.82449608
  PAW double counting   =    142360.76671909  -148446.88646277
  entropy T*S    EENTRO =        -0.00011645
  eigenvalues    EBANDS =    -15733.34174328
  atomic energy  EATOM  =    162405.62235658
  Solvation  Ediel_sol  =         0.00000000
  ---------------------------------------------------
  free energy    TOTEN  =      -385.65923531 eV

  energy without entropy =     -385.65911886  energy(sigma->0) =     -385.65917709


--------------------------------------------------------------------------------------------------------




----------------------------------------- Iteration    1(   9)  ---------------------------------------


    POTLOK:  cpu time    0.9500: real time    0.9499
    SETDIJ:  cpu time    0.4073: real time    0.4072
     EDDAV:  cpu time   19.5491: real time   19.5672
       DOS:  cpu time    0.0086: real time    0.0086
    CHARGE:  cpu time    4.3538: real time    4.3534
    MIXING:  cpu time    0.0355: real time    0.0355
    --------------------------------------------
      LOOP:  cpu time   25.3049: real time   25.3223

 eigenvalue-minimisations  : 18776
 total energy-change (2. order) :-0.6335137E+01  (-0.7036463E+01)
 number of electron     768.0003889 magnetization       0.0000000
 augmentation part      307.5216670 magnetization       0.0000000

 Broyden mixing:
  rms(total) = 0.10384E+01    rms(broyden)= 0.10383E+01
  rms(prec ) = 0.12443E+01
  weight for this iteration     100.00

 eigenvalues of (default mixing * dielectric matrix)
  average eigenvalue GAMMA=   1.1133
  1.4349  1.4349  1.0684  0.5152

 Free energy of the ion-electron system (eV)
  ---------------------------------------------------
  alpha Z        PSCENC =      5454.96200761
  Ewald energy   TEWEN  =   -104104.01822134
  -Hartree energ DENC   =    -47715.79947698
  -exchange      EXHF   =         0.00000000
  -V(xc)+E(xc)   XCENC  =      5136.37952902
  PAW double counting   =    142514.95281842  -148642.10519951
  entropy T*S    EENTRO =        -0.00030051
  eigenvalues    EBANDS =    -15441.98788608
  atomic energy  EATOM  =    162405.62235658
  Solvation  Ediel_sol  =         0.00000000
  ---------------------------------------------------
  free energy    TOTEN  =      -391.99437280 eV

  energy without entropy =     -391.99407229  energy(sigma->0) =     -391.99422255


--------------------------------------------------------------------------------------------------------




----------------------------------------- Iteration    1(  10)  ---------------------------------------


    POTLOK:  cpu time    0.9599: real time    0.9594
    SETDIJ:  cpu time    0.4081: real time    0.4081
     EDDAV:  cpu time   21.3919: real time   21.4198
       DOS:  cpu time    0.0082: real time    0.0082
    CHARGE:  cpu time    4.3581: real time    4.3578
    MIXING:  cpu time    0.0357: real time    0.0357
    --------------------------------------------
      LOOP:  cpu time   27.1624: real time   27.1895

 eigenvalue-minimisations  : 20720
 total energy-change (2. order) :-0.6233565E+00  (-0.1579379E+01)
 number of electron     768.0003920 magnetization       0.0000000
 augmentation part      308.5994703 magnetization       0.0000000

 Broyden mixing:
  rms(total) = 0.43592E+00    rms(broyden)= 0.43538E+00
  rms(prec ) = 0.45145E+00
  weight for this iteration     100.00

 eigenvalues of (default mixing * dielectric matrix)
  average eigenvalue GAMMA=   1.1046
  1.5943  1.5943  1.1566  0.6843  0.4934

 Free energy of the ion-electron system (eV)
  ---------------------------------------------------
  alpha Z        PSCENC =      5454.96200761
  Ewald energy   TEWEN  =   -104104.01822134
  -Hartree energ DENC   =    -47684.74843717
  -exchange      EXHF   =         0.00000000
  -V(xc)+E(xc)   XCENC  =      5137.39821572
  PAW double counting   =    142015.98009081  -148101.58223316
  entropy T*S    EENTRO =        -0.00027247
  eigenvalues    EBANDS =    -15516.23123591
  atomic energy  EATOM  =    162405.62235658
  Solvation  Ediel_sol  =         0.00000000
  ---------------------------------------------------
  free energy    TOTEN  =      -392.61772934 eV

  energy without entropy =     -392.61745687  energy(sigma->0) =     -392.61759310


--------------------------------------------------------------------------------------------------------




----------------------------------------- Iteration    1(  11)  ---------------------------------------


    POTLOK:  cpu time    0.9554: real time    0.9551
    SETDIJ:  cpu time    0.4089: real time    0.4087
     EDDAV:  cpu time   20.6685: real time   20.6821
       DOS:  cpu time    0.0084: real time    0.0084
    CHARGE:  cpu time    4.3527: real time    4.3523
    MIXING:  cpu time    0.0435: real time    0.0435
    --------------------------------------------
      LOOP:  cpu time   26.4379: real time   26.4506

 eigenvalue-minimisations  : 20152
 total energy-change (2. order) :-0.3361648E+00  (-0.2507661E+00)
 number of electron     768.0003928 magnetization       0.0000000
 augmentation part      308.8921245 magnetization       0.0000000

 Broyden mixing:
  rms(total) = 0.28068E+00    rms(broyden)= 0.28062E+00
  rms(prec ) = 0.30122E+00
  weight for this iteration     100.00

 eigenvalues of (default mixing * dielectric matrix)
  average eigenvalue GAMMA=   1.1451
  1.8106  1.8106  1.0602  1.0602  0.6567  0.4724

 Free energy of the ion-electron system (eV)
  ---------------------------------------------------
  alpha Z        PSCENC =      5454.96200761
  Ewald energy   TEWEN  =   -104104.01822134
  -Hartree energ DENC   =    -47675.25663489
  -exchange      EXHF   =         0.00000000
  -V(xc)+E(xc)   XCENC  =      5136.21513507
  PAW double counting   =    141831.90311499  -147897.78221267
  entropy T*S    EENTRO =        -0.00026610
  eigenvalues    EBANDS =    -15544.59917340
  atomic energy  EATOM  =    162405.62235658
  Solvation  Ediel_sol  =         0.00000000
  ---------------------------------------------------
  free energy    TOTEN  =      -392.95389416 eV

  energy without entropy =     -392.95362806  energy(sigma->0) =     -392.95376111


--------------------------------------------------------------------------------------------------------




----------------------------------------- Iteration    1(  12)  ---------------------------------------


    POTLOK:  cpu time    0.9593: real time    0.9589
    SETDIJ:  cpu time    0.4077: real time    0.4076
     EDDAV:  cpu time   21.1096: real time   21.1309
       DOS:  cpu time    0.0084: real time    0.0084
    CHARGE:  cpu time    4.3320: real time    4.3312
    MIXING:  cpu time    0.0432: real time    0.0432
    --------------------------------------------
      LOOP:  cpu time   26.8609: real time   26.8809

 eigenvalue-minimisations  : 20384
 total energy-change (2. order) :-0.3604807E-01  (-0.4318925E-01)
 number of electron     768.0003931 magnetization       0.0000000
 augmentation part      308.9821864 magnetization       0.0000000

 Broyden mixing:
  rms(total) = 0.89718E-01    rms(broyden)= 0.89672E-01
  rms(prec ) = 0.10052E+00
  weight for this iteration     100.00

 eigenvalues of (default mixing * dielectric matrix)
  average eigenvalue GAMMA=   1.1453
  1.9712  1.9712  1.1034  1.1034  0.4789  0.7533  0.6360

 Free energy of the ion-electron system (eV)
  ---------------------------------------------------
  alpha Z        PSCENC =      5454.96200761
  Ewald energy   TEWEN  =   -104104.01822134
  -Hartree energ DENC   =    -47683.67235349
  -exchange      EXHF   =         0.00000000
  -V(xc)+E(xc)   XCENC  =      5136.96215560
  PAW double counting   =    141611.78300177  -147666.96235114
  entropy T*S    EENTRO =        -0.00026629
  eigenvalues    EBANDS =    -15547.66627152
  atomic energy  EATOM  =    162405.62235658
  Solvation  Ediel_sol  =         0.00000000
  ---------------------------------------------------
  free energy    TOTEN  =      -392.98994222 eV

  energy without entropy =     -392.98967593  energy(sigma->0) =     -392.98980908


--------------------------------------------------------------------------------------------------------




----------------------------------------- Iteration    1(  13)  ---------------------------------------


    POTLOK:  cpu time    0.9487: real time    0.9483
    SETDIJ:  cpu time    0.4094: real time    0.4092
     EDDAV:  cpu time   21.0091: real time   21.0406
       DOS:  cpu time    0.0086: real time    0.0086
    CHARGE:  cpu time    4.3501: real time    4.3496
    MIXING:  cpu time    0.0532: real time    0.0532
    --------------------------------------------
      LOOP:  cpu time   26.7796: real time   26.8101

 eigenvalue-minimisations  : 20488
 total energy-change (2. order) :-0.6572032E-02  (-0.7430109E-02)
 number of electron     768.0003933 magnetization       0.0000000
 augmentation part      308.9947001 magnetization       0.0000000

 Broyden mixing:
  rms(total) = 0.43194E-01    rms(broyden)= 0.43166E-01
  rms(prec ) = 0.49587E-01
  weight for this iteration     100.00

 eigenvalues of (default mixing * dielectric matrix)
  average eigenvalue GAMMA=   1.1477
  2.1225  1.8816  1.1937  1.1937  0.9716  0.4741  0.7404  0.6037

 Free energy of the ion-electron system (eV)
  ---------------------------------------------------
  alpha Z        PSCENC =      5454.96200761
  Ewald energy   TEWEN  =   -104104.01822134
  -Hartree energ DENC   =    -47689.19287927
  -exchange      EXHF   =         0.00000000
  -V(xc)+E(xc)   XCENC  =      5137.29615730
  PAW double counting   =    141561.09030647  -147614.61383887
  entropy T*S    EENTRO =        -0.00026630
  eigenvalues    EBANDS =    -15544.14213643
  atomic energy  EATOM  =    162405.62235658
  Solvation  Ediel_sol  =         0.00000000
  ---------------------------------------------------
  free energy    TOTEN  =      -392.99651425 eV

  energy without entropy =     -392.99624795  energy(sigma->0) =     -392.99638110


--------------------------------------------------------------------------------------------------------




----------------------------------------- Iteration    1(  14)  ---------------------------------------


    POTLOK:  cpu time    0.9600: real time    0.9596
    SETDIJ:  cpu time    0.4080: real time    0.4078
     EDDAV:  cpu time   21.6725: real time   21.6883
       DOS:  cpu time    0.0095: real time    0.0095
    CHARGE:  cpu time    4.3324: real time    4.3320
    MIXING:  cpu time    0.0521: real time    0.0521
    --------------------------------------------
      LOOP:  cpu time   27.4351: real time   27.4499

 eigenvalue-minimisations  : 21192
 total energy-change (2. order) :-0.1612750E-02  (-0.2619663E-02)
 number of electron     768.0003932 magnetization       0.0000000
 augmentation part      308.9622931 magnetization       0.0000000

 Broyden mixing:
  rms(total) = 0.25211E-01    rms(broyden)= 0.25189E-01
  rms(prec ) = 0.29491E-01
  weight for this iteration     100.00

 eigenvalues of (default mixing * dielectric matrix)
  average eigenvalue GAMMA=   1.1728
  2.1724  2.1724  1.3551  1.1248  1.1248  0.8626  0.4725  0.6622  0.6081

 Free energy of the ion-electron system (eV)
  ---------------------------------------------------
  alpha Z        PSCENC =      5454.96200761
  Ewald energy   TEWEN  =   -104104.01822134
  -Hartree energ DENC   =    -47691.20764712
  -exchange      EXHF   =         0.00000000
  -V(xc)+E(xc)   XCENC  =      5137.53435476
  PAW double counting   =    141550.38039725  -147604.80969282
  entropy T*S    EENTRO =        -0.00026630
  eigenvalues    EBANDS =    -15541.46141561
  atomic energy  EATOM  =    162405.62235658
  Solvation  Ediel_sol  =         0.00000000
  ---------------------------------------------------
  free energy    TOTEN  =      -392.99812700 eV

  energy without entropy =     -392.99786070  energy(sigma->0) =     -392.99799385


--------------------------------------------------------------------------------------------------------




----------------------------------------- Iteration    1(  15)  ---------------------------------------


    POTLOK:  cpu time    0.9495: real time    0.9493
    SETDIJ:  cpu time    0.4088: real time    0.4087
     EDDAV:  cpu time   20.7051: real time   20.7224
       DOS:  cpu time    0.0082: real time    0.0082
    CHARGE:  cpu time    4.3576: real time    4.3573
    MIXING:  cpu time    0.0645: real time    0.0645
    --------------------------------------------
      LOOP:  cpu time   26.4943: real time   26.5109

 eigenvalue-minimisations  : 19944
 total energy-change (2. order) :-0.1815589E-03  (-0.5478634E-03)
 number of electron     768.0003932 magnetization       0.0000000
 augmentation part      308.9777672 magnetization       0.0000000

 Broyden mixing:
  rms(total) = 0.16520E-01    rms(broyden)= 0.16518E-01
  rms(prec ) = 0.18201E-01
  weight for this iteration     100.00

 eigenvalues of (default mixing * dielectric matrix)
  average eigenvalue GAMMA=   1.2997
  2.7484  2.7484  1.4799  1.2707  1.2707  0.8610  0.8610  0.4726  0.6743  0.6105

 Free energy of the ion-electron system (eV)
  ---------------------------------------------------
  alpha Z        PSCENC =      5454.96200761
  Ewald energy   TEWEN  =   -104104.01822134
  -Hartree energ DENC   =    -47688.06248101
  -exchange      EXHF   =         0.00000000
  -V(xc)+E(xc)   XCENC  =      5137.36236251
  PAW double counting   =    141563.99519880  -147618.65478135
  entropy T*S    EENTRO =        -0.00026630
  eigenvalues    EBANDS =    -15544.20448404
  atomic energy  EATOM  =    162405.62235658
  Solvation  Ediel_sol  =         0.00000000
  ---------------------------------------------------
  free energy    TOTEN  =      -392.99830856 eV

  energy without entropy =     -392.99804226  energy(sigma->0) =     -392.99817541


--------------------------------------------------------------------------------------------------------




----------------------------------------- Iteration    1(  16)  ---------------------------------------


    POTLOK:  cpu time    0.9619: real time    0.9614
    SETDIJ:  cpu time    0.4081: real time    0.4079
     EDDAV:  cpu time   21.7704: real time   21.8018
       DOS:  cpu time    0.0086: real time    0.0086
    CHARGE:  cpu time    4.3303: real time    4.3297
    MIXING:  cpu time    0.0614: real time    0.0614
    --------------------------------------------
      LOOP:  cpu time   27.5412: real time   27.5715

 eigenvalue-minimisations  : 21296
 total energy-change (2. order) :-0.1069250E-02  (-0.6225054E-03)
 number of electron     768.0003932 magnetization       0.0000000
 augmentation part      308.9827404 magnetization       0.0000000

 Broyden mixing:
  rms(total) = 0.29727E-01    rms(broyden)= 0.29724E-01
  rms(prec ) = 0.37129E-01
  weight for this iteration     100.00

 eigenvalues of (default mixing * dielectric matrix)
  average eigenvalue GAMMA=   1.2416
  2.5983  2.5983  1.4885  1.4885  1.1249  1.1249  0.4737  0.7066  0.7066  0.7151
  0.6322

 Free energy of the ion-electron system (eV)
  ---------------------------------------------------
  alpha Z        PSCENC =      5454.96200761
  Ewald energy   TEWEN  =   -104104.01822134
  -Hartree energ DENC   =    -47685.62137533
  -exchange      EXHF   =         0.00000000
  -V(xc)+E(xc)   XCENC  =      5137.10109349
  PAW double counting   =    141586.28418807  -147640.55378051
  entropy T*S    EENTRO =        -0.00026630
  eigenvalues    EBANDS =    -15546.77538007
  atomic energy  EATOM  =    162405.62235658
  Solvation  Ediel_sol  =         0.00000000
  ---------------------------------------------------
  free energy    TOTEN  =      -392.99937781 eV

  energy without entropy =     -392.99911151  energy(sigma->0) =     -392.99924466


--------------------------------------------------------------------------------------------------------




----------------------------------------- Iteration    1(  17)  ---------------------------------------


    POTLOK:  cpu time    0.9494: real time    0.9491
    SETDIJ:  cpu time    0.4135: real time    0.4133
     EDDAV:  cpu time   21.2360: real time   21.2640
       DOS:  cpu time    0.0085: real time    0.0085
    CHARGE:  cpu time    4.3585: real time    4.3577
    MIXING:  cpu time    0.0697: real time    0.0697
    --------------------------------------------
      LOOP:  cpu time   27.0363: real time   27.0630

 eigenvalue-minimisations  : 20376
 total energy-change (2. order) : 0.8765252E-03  (-0.2129485E-03)
 number of electron     768.0003932 magnetization       0.0000000
 augmentation part      308.9767302 magnetization       0.0000000

 Broyden mixing:
  rms(total) = 0.77447E-02    rms(broyden)= 0.77406E-02
  rms(prec ) = 0.92610E-02
  weight for this iteration     100.00

 eigenvalues of (default mixing * dielectric matrix)
  average eigenvalue GAMMA=   1.1934
  2.4403  2.4403  1.7929  1.4129  1.1242  1.1242  0.7547  0.7547  0.4736  0.7433
  0.6551  0.6046

 Free energy of the ion-electron system (eV)
  ---------------------------------------------------
  alpha Z        PSCENC =      5454.96200761
  Ewald energy   TEWEN  =   -104104.01822134
  -Hartree energ DENC   =    -47687.81182946
  -exchange      EXHF   =         0.00000000
  -V(xc)+E(xc)   XCENC  =      5137.28393616
  PAW double counting   =    141576.66588789  -147631.06205839
  entropy T*S    EENTRO =        -0.00026630
  eigenvalues    EBANDS =    -15544.64031402
  atomic energy  EATOM  =    162405.62235658
  Solvation  Ediel_sol  =         0.00000000
  ---------------------------------------------------
  free energy    TOTEN  =      -392.99850129 eV

  energy without entropy =     -392.99823498  energy(sigma->0) =     -392.99836813


--------------------------------------------------------------------------------------------------------




----------------------------------------- Iteration    1(  18)  ---------------------------------------


    POTLOK:  cpu time    0.9605: real time    0.9601
    SETDIJ:  cpu time    0.4083: real time    0.4081
     EDDAV:  cpu time   20.4121: real time   20.4412
       DOS:  cpu time    0.0085: real time    0.0085
    CHARGE:  cpu time    4.3345: real time    4.3333
    MIXING:  cpu time    0.0831: real time    0.0830
    --------------------------------------------
      LOOP:  cpu time   26.2076: real time   26.2349

 eigenvalue-minimisations  : 19528
 total energy-change (2. order) :-0.1902040E-04  (-0.6976798E-04)
 number of electron     768.0003932 magnetization       0.0000000
 augmentation part      308.9735837 magnetization       0.0000000

 Broyden mixing:
  rms(total) = 0.17227E-02    rms(broyden)= 0.17169E-02
  rms(prec ) = 0.18119E-02
  weight for this iteration     100.00

 eigenvalues of (default mixing * dielectric matrix)
  average eigenvalue GAMMA=   1.1729
  2.7837  2.4925  1.6634  1.3546  1.1265  1.1265  0.8737  0.7454  0.7454  0.7015
  0.4731  0.6085  0.5533

 Free energy of the ion-electron system (eV)
  ---------------------------------------------------
  alpha Z        PSCENC =      5454.96200761
  Ewald energy   TEWEN  =   -104104.01822134
  -Hartree energ DENC   =    -47688.33625797
  -exchange      EXHF   =         0.00000000
  -V(xc)+E(xc)   XCENC  =      5137.32814589
  PAW double counting   =    141574.03285631  -147628.40550495
  entropy T*S    EENTRO =        -0.00026630
  eigenvalues    EBANDS =    -15544.18363613
  atomic energy  EATOM  =    162405.62235658
  Solvation  Ediel_sol  =         0.00000000
  ---------------------------------------------------
  free energy    TOTEN  =      -392.99852031 eV

  energy without entropy =     -392.99825400  energy(sigma->0) =     -392.99838716


--------------------------------------------------------------------------------------------------------




----------------------------------------- Iteration    1(  19)  ---------------------------------------


    POTLOK:  cpu time    0.9508: real time    0.9504
    SETDIJ:  cpu time    0.4083: real time    0.4082
     EDDAV:  cpu time   17.6304: real time   17.6445
       DOS:  cpu time    0.0086: real time    0.0086
    CHARGE:  cpu time    4.3706: real time    4.3695
    MIXING:  cpu time    0.0799: real time    0.0798
    --------------------------------------------
      LOOP:  cpu time   23.4492: real time   23.4615

 eigenvalue-minimisations  : 15664
 total energy-change (2. order) :-0.1355933E-04  (-0.6933318E-05)
 number of electron     768.0003932 magnetization       0.0000000
 augmentation part      308.9727305 magnetization       0.0000000

 Broyden mixing:
  rms(total) = 0.68782E-03    rms(broyden)= 0.68707E-03
  rms(prec ) = 0.70481E-03
  weight for this iteration     100.00

 eigenvalues of (default mixing * dielectric matrix)
  average eigenvalue GAMMA=   1.2246
  3.1024  2.3925  1.8566  1.6800  1.1396  1.1396  0.8908  0.8908  0.9039  0.4733
  0.7733  0.6835  0.6091  0.6091

 Free energy of the ion-electron system (eV)
  ---------------------------------------------------
  alpha Z        PSCENC =      5454.96200761
  Ewald energy   TEWEN  =   -104104.01822134
  -Hartree energ DENC   =    -47688.36495229
  -exchange      EXHF   =         0.00000000
  -V(xc)+E(xc)   XCENC  =      5137.32654957
  PAW double counting   =    141575.28818788  -147629.59019732
  entropy T*S    EENTRO =        -0.00026630
  eigenvalues    EBANDS =    -15544.22399824
  atomic energy  EATOM  =    162405.62235658
  Solvation  Ediel_sol  =         0.00000000
  ---------------------------------------------------
  free energy    TOTEN  =      -392.99853387 eV

  energy without entropy =     -392.99826756  energy(sigma->0) =     -392.99840071


--------------------------------------------------------------------------------------------------------




----------------------------------------- Iteration    1(  20)  ---------------------------------------


    POTLOK:  cpu time    0.9489: real time    0.9484
    SETDIJ:  cpu time    0.4106: real time    0.4105
     EDDAV:  cpu time   15.6355: real time   15.6605
       DOS:  cpu time    0.0084: real time    0.0084
    CHARGE:  cpu time    4.3423: real time    4.3413
    MIXING:  cpu time    0.0957: real time    0.0957
    --------------------------------------------
      LOOP:  cpu time   21.4421: real time   21.4654

 eigenvalue-minimisations  : 13360
 total energy-change (2. order) :-0.5559879E-05  (-0.1750688E-05)
 number of electron     768.0003932 magnetization       0.0000000
 augmentation part      308.9738799 magnetization       0.0000000

 Broyden mixing:
  rms(total) = 0.60586E-03    rms(broyden)= 0.60565E-03
  rms(prec ) = 0.67003E-03
  weight for this iteration     100.00

 eigenvalues of (default mixing * dielectric matrix)
  average eigenvalue GAMMA=   1.2350
  3.2731  2.3534  2.3534  1.6169  1.1371  1.1371  1.0689  0.9558  0.8163  0.8163
  0.7339  0.4732  0.6641  0.5906  0.5344

 Free energy of the ion-electron system (eV)
  ---------------------------------------------------
  alpha Z        PSCENC =      5454.96200761
  Ewald energy   TEWEN  =   -104104.01822134
  -Hartree energ DENC   =    -47688.41965223
  -exchange      EXHF   =         0.00000000
  -V(xc)+E(xc)   XCENC  =      5137.32609110
  PAW double counting   =    141576.14576900  -147630.28140039
  entropy T*S    EENTRO =        -0.00026630
  eigenvalues    EBANDS =    -15544.33522345
  atomic energy  EATOM  =    162405.62235658
  Solvation  Ediel_sol  =         0.00000000
  ---------------------------------------------------
  free energy    TOTEN  =      -392.99853943 eV

  energy without entropy =     -392.99827312  energy(sigma->0) =     -392.99840627


--------------------------------------------------------------------------------------------------------




----------------------------------------- Iteration    1(  21)  ---------------------------------------


    POTLOK:  cpu time    0.9613: real time    0.9607
    SETDIJ:  cpu time    0.4079: real time    0.4078
     EDDAV:  cpu time   11.7336: real time   11.7356
       DOS:  cpu time    0.0082: real time    0.0082
    --------------------------------------------
      LOOP:  cpu time   13.1115: real time   13.1129

 eigenvalue-minimisations  :  8272
 total energy-change (2. order) :-0.7268391E-06  (-0.4788506E-06)
 number of electron     768.0003932 magnetization       0.0000000
 augmentation part      308.9738799 magnetization       0.0000000

 Free energy of the ion-electron system (eV)
  ---------------------------------------------------
  alpha Z        PSCENC =      5454.96200761
  Ewald energy   TEWEN  =   -104104.01822134
  -Hartree energ DENC   =    -47688.47964039
  -exchange      EXHF   =         0.00000000
  -V(xc)+E(xc)   XCENC  =      5137.32943449
  PAW double counting   =    141576.17962752  -147630.29248326
  entropy T*S    EENTRO =        -0.00026630
  eigenvalues    EBANDS =    -15544.30135504
  atomic energy  EATOM  =    162405.62235658
  Solvation  Ediel_sol  =         0.00000000
  ---------------------------------------------------
  free energy    TOTEN  =      -392.99854015 eV

  energy without entropy =     -392.99827385  energy(sigma->0) =     -392.99840700


--------------------------------------------------------------------------------------------------------




 average (electrostatic) potential at core
  the test charge radii are     0.8614  0.6768
  (the norm of the test charge is              1.0000)
       1 -79.5443       2 -79.5443       3 -79.5443       4 -79.5443       5 -79.5443
       6 -79.5443       7 -79.5443       8 -79.5443       9 -79.5443      10 -79.5443
      11 -79.5443      12 -79.5443      13 -79.5443      14 -79.5443      15 -79.5443
      16 -79.5443      17 -79.5443      18 -79.5443      19 -79.5443      20 -79.5443
      21 -79.5443      22 -79.5443      23 -79.5443      24 -79.5443      25 -79.5443
      26 -79.5443      27 -79.5443      28 -79.5443      29 -79.5443      30 -79.5443
      31 -79.5443      32 -79.5443      33-114.1564      34-114.1564      35-114.1564
      36-114.1564      37-114.1564      38-114.1564      39-114.1564      40-114.1564
      41-114.1564      42-114.1564      43-114.1564      44-114.1564      45-114.1564
      46-114.1564      47-114.1564      48-114.1564      49-114.1564      50-114.1564
      51-114.1564      52-114.1564      53-114.1564      54-114.1564      55-114.1564
      56-114.1564      57-114.1564      58-114.1564      59-114.1564      60-114.1564
      61-114.1564      62-114.1564      63-114.1564      64-114.1564
 
 
 
 E-fermi :   7.6159     XC(G=0): -13.0681     alpha+bet :-12.7142


 spin component 1

 k-point     1 :       0.0000    0.0000    0.0000
  band No.  band energies     occupation 
      1     -95.8777      1.00000
      2     -95.8768      1.00000
      3     -95.8766      1.00000
      4     -95.8766      1.00000
      5     -95.8763      1.00000
      6     -95.8763      1.00000
      7     -95.8763      1.00000
      8     -95.8763      1.00000
      9     -95.8763      1.00000
     10     -95.8763      1.00000
     11     -95.8763      1.00000
     12     -95.8763      1.00000
     13     -95.8763      1.00000
     14     -95.8763      1.00000
     15     -95.8760      1.00000
     16     -95.8759      1.00000
     17     -95.0991      1.00000
     18     -95.0982      1.00000
     19     -95.0980      1.00000
     20     -95.0980      1.00000
     21     -95.0978      1.00000
     22     -95.0978      1.00000
     23     -95.0978      1.00000
     24     -95.0978      1.00000
     25     -95.0977      1.00000
     26     -95.0977      1.00000
     27     -95.0977      1.00000
     28     -95.0977      1.00000
     29     -95.0977      1.00000
     30     -95.0977      1.00000
     31     -95.0974      1.00000
     32     -95.0973      1.00000
     33     -56.3255      1.00000
[...]
   0.123E-11 0.421E-12 0.161E-10   -.197E-12 0.127E-12 -.114E-12   0.794E-22 -.199E-22 -.298E-21   -.262E-12 0.514E-13 -.134E-11
   0.117E-11 0.404E-12 0.120E-11   -.169E-12 0.113E-12 -.568E-13   0.000E+00 0.662E-23 -.119E-21   -.293E-12 0.120E-12 -.345E-12
   0.110E-11 -.102E-12 0.180E-11   -.226E-12 0.160E-12 -.114E-12   -.794E-22 0.000E+00 -.139E-21   0.111E-13 -.442E-14 -.137E-11
   0.107E-11 -.879E-11 0.940E-11   0.162E-14 0.188E-12 -.568E-13   0.000E+00 -.184E-21 0.208E-21   -.374E-13 -.123E-12 -.288E-12
   0.175E-11 0.614E-12 -.437E-11   -.882E-14 0.113E-12 -.114E-12   0.114E-21 -.397E-22 -.232E-21   0.106E-11 -.144E-12 -.721E-12
   0.176E-11 0.590E-12 -.542E-10   -.179E-12 0.113E-12 -.114E-12   0.208E-21 -.794E-22 0.232E-21   0.110E-11 -.344E-13 0.548E-13
   0.187E-11 -.961E-11 -.835E-11   -.222E-12 0.160E-12 -.114E-12   -.199E-22 0.165E-22 -.119E-21   0.803E-12 0.393E-12 -.861E-12
   0.188E-11 0.126E-10 -.780E-11   -.279E-12 0.174E-12 -.114E-12   -.103E-21 0.463E-22 0.146E-21   0.833E-12 0.270E-12 0.212E-12
   0.510E-12 0.113E-11 0.993E-12   -.171E-12 0.171E-12 -.114E-12   -.447E-22 0.877E-22 -.794E-22   0.122E-11 0.426E-12 -.903E-12
   0.541E-12 0.104E-11 0.137E-11   -.171E-12 0.227E-12 -.114E-12   0.265E-22 -.126E-21 0.136E-21   0.988E-12 0.514E-12 0.388E-13
   0.697E-12 0.159E-11 0.851E-12   -.412E-12 0.199E-12 -.568E-13   -.794E-22 0.290E-23 0.993E-22   0.894E-12 -.115E-12 -.805E-12
   0.718E-12 0.161E-11 0.127E-11   -.526E-12 0.114E-12 -.568E-13   -.470E-22 0.122E-21 0.794E-22   0.722E-12 -.208E-12 0.273E-12
   0.372E-12 0.435E-10 0.196E-10   -.341E-12 0.156E-12 -.114E-12   0.165E-21 -.232E-21 -.330E-21   -.205E-11 0.779E-12 -.100E-11
   0.317E-12 0.130E-11 0.289E-11   -.171E-12 0.171E-12 -.568E-13   0.139E-21 -.596E-22 -.343E-22   -.184E-11 0.877E-12 -.130E-12
   0.197E-12 -.715E-11 0.120E-10   -.199E-12 0.128E-12 -.114E-12   0.562E-22 0.893E-22 -.337E-21   -.178E-11 -.360E-12 -.112E-11
   0.151E-12 0.196E-11 -.224E-10   -.171E-12 0.114E-12 -.568E-13   0.162E-21 -.277E-22 0.430E-22   -.158E-11 -.464E-12 -.713E-13
   0.126E-12 -.181E-11 0.102E-11   0.129E-12 0.320E-13 -.142E-13   -.250E-22 0.215E-22 -.215E-22   -.172E-12 0.131E-12 -.398E-12
   0.486E-13 0.395E-11 0.232E-11   0.186E-12 0.604E-13 0.000E+00   0.227E-22 0.967E-23 -.199E-22   -.115E-12 0.137E-12 0.294E-12
   0.257E-13 0.427E-11 0.258E-11   0.106E-12 0.826E-13 -.142E-13   -.116E-22 -.993E-23 0.703E-23   -.855E-13 -.147E-12 -.382E-12
   0.515E-13 -.800E-12 0.221E-11   0.106E-12 0.542E-13 0.000E+00   0.951E-23 -.827E-23 0.397E-22   -.110E-12 -.152E-12 0.260E-12
   0.398E-12 0.490E-11 -.128E-11   0.119E-12 0.497E-13 -.142E-13   0.207E-23 -.744E-22 -.116E-22   0.423E-12 0.754E-13 -.319E-12
   0.477E-12 0.159E-10 -.826E-11   0.119E-12 0.639E-13 0.000E+00   0.447E-22 0.118E-22 0.372E-23   0.368E-12 0.157E-12 0.160E-12
   0.497E-12 -.811E-11 0.118E-10   0.157E-12 0.853E-13 -.142E-13   -.850E-22 0.269E-23 0.149E-22   0.339E-12 -.143E-12 -.423E-12
   0.473E-12 0.171E-11 -.457E-11   0.129E-12 0.568E-13 0.000E+00   0.298E-22 0.778E-22 -.459E-22   0.375E-12 -.223E-12 0.290E-12
   0.210E-12 0.272E-12 0.182E-12   0.613E-13 0.832E-13 -.142E-13   0.827E-23 0.562E-22 -.248E-22   0.538E-12 0.403E-13 -.391E-12
   0.167E-12 0.318E-12 0.316E-12   0.613E-13 0.547E-13 0.000E+00   0.687E-22 0.678E-22 0.736E-22   0.530E-12 0.274E-13 0.266E-12
   0.191E-12 0.223E-12 0.150E-12   0.711E-13 0.622E-13 -.142E-13   0.447E-22 -.111E-21 0.232E-22   0.518E-12 -.185E-13 -.343E-12
   0.228E-12 -.798E-13 -.171E-12   0.711E-13 0.622E-13 0.000E+00   -.132E-22 0.496E-22 -.166E-22   0.436E-12 -.194E-15 0.230E-12
   0.551E-13 0.385E-12 0.190E-10   0.728E-13 0.858E-13 -.142E-13   0.364E-22 -.662E-22 -.496E-23   -.728E-12 -.860E-13 -.336E-12
   0.984E-13 0.332E-12 0.324E-11   0.586E-13 0.716E-13 0.000E+00   0.108E-22 0.409E-22 0.645E-22   -.723E-12 -.189E-13 0.164E-12
   0.942E-13 0.491E-11 0.834E-11   0.497E-13 0.658E-13 -.142E-13   0.662E-23 -.397E-22 0.331E-23   -.745E-12 0.150E-13 -.474E-12
   0.578E-13 0.577E-11 0.491E-11   0.107E-12 0.658E-13 0.000E+00   0.558E-23 0.662E-22 -.331E-22   -.660E-12 -.554E-13 0.269E-12
   0.128E-12 0.106E-12 0.379E-12   0.453E-13 0.240E-13 -.947E-15   0.463E-22 -.827E-24 -.389E-22   0.621E-12 0.380E-13 0.835E-12
   0.178E-12 0.489E-13 0.263E-12   0.355E-13 0.284E-13 0.513E-14   -.662E-23 0.744E-23 0.525E-22   0.522E-12 0.770E-13 -.289E-12
   0.256E-12 0.301E-12 0.445E-12   0.130E-12 0.595E-13 -.104E-14   -.761E-22 -.430E-22 0.430E-22   0.408E-12 -.121E-12 0.786E-12
   0.208E-12 -.213E-12 -.212E-13   0.639E-13 0.426E-13 0.503E-14   0.794E-22 0.612E-22 0.529E-22   0.449E-12 -.166E-12 -.310E-12
   0.142E-12 0.180E-10 -.118E-10   0.986E-13 0.471E-13 -.107E-14   0.149E-22 0.744E-23 -.794E-22   -.808E-12 0.250E-12 0.756E-12
   0.955E-13 0.743E-11 0.826E-11   0.853E-13 0.497E-13 0.501E-14   -.256E-22 -.232E-22 -.199E-22   -.711E-12 0.136E-12 -.264E-12
   0.145E-13 0.276E-11 -.120E-10   0.453E-13 0.728E-13 -.116E-14   -.455E-22 0.587E-22 0.248E-23   -.651E-12 -.299E-12 0.835E-12
   0.655E-13 0.557E-11 0.432E-11   0.497E-13 0.426E-13 0.491E-14   -.141E-22 -.232E-22 0.215E-22   -.689E-12 -.180E-12 -.323E-12
   0.122E-12 0.259E-12 -.296E-12   -.450E-14 0.546E-13 -.488E-14   -.310E-22 0.149E-22 0.248E-22   -.241E-12 0.652E-13 0.841E-12
   0.740E-13 0.292E-12 -.938E-11   -.880E-14 0.573E-13 0.119E-14   0.529E-22 -.366E-22 0.126E-22   -.164E-12 0.434E-13 -.309E-12
   0.282E-13 0.977E-12 -.104E-10   -.177E-13 0.324E-13 -.498E-14   -.331E-23 -.265E-22 0.165E-22   -.469E-13 -.737E-13 0.791E-12
   0.761E-13 0.104E-11 0.616E-12   -.868E-14 0.706E-13 0.109E-14   -.453E-22 0.265E-22 -.579E-23   -.121E-12 -.576E-13 -.341E-12
   0.415E-12 0.380E-12 0.207E-11   0.452E-13 0.740E-13 -.500E-14   0.529E-22 -.827E-23 -.256E-22   0.496E-12 -.157E-12 0.784E-12
   0.462E-12 0.317E-12 -.153E-11   -.124E-13 0.500E-13 0.107E-14   -.397E-22 -.248E-23 0.199E-22   0.414E-12 -.389E-13 -.335E-12
   0.503E-12 -.113E-11 0.130E-10   0.275E-13 0.332E-13 -.510E-14   -.165E-22 0.281E-22 0.112E-22   0.313E-12 0.920E-13 0.717E-12
   0.454E-12 0.508E-11 -.112E-11   0.899E-14 0.634E-13 0.975E-15   0.993E-23 -.281E-22 -.186E-22   0.398E-12 -.242E-13 -.242E-12
 -----------------------------------------------------------------------------------------------
   0.370E-10 0.109E-09 -.586E-10   -.270E-12 -.521E-13 0.120E-12   0.107E-20 -.766E-21 -.150E-20   0.350E-12 0.360E-11 0.299E-11
 
 
 POSITION                                       TOTAL-FORCE (eV/Angst)
 -----------------------------------------------------------------------------------
      0.00000      0.00000      0.00000         0.000000      0.000000      0.000000
      0.00000      0.00000      4.17383         0.000000     -0.000000      0.000000
      0.00000      4.17383      0.00000        -0.000000     -0.000000     -0.000000
      0.00000      4.17383      4.17383         0.000000      0.000000      0.000000
      4.17383      0.00000      0.00000        -0.000000     -0.000000     -0.000000
      4.17383      0.00000      4.17383         0.000000      0.000000      0.000000
      4.17383      4.17383      0.00000         0.000000      0.000000     -0.000000
      4.17383      4.17383      4.17383         0.000000     -0.000000      0.000000
      2.08692      2.08692      0.00000         0.000000      0.000000     -0.000000
      2.08692      2.08692      4.17383        -0.000000     -0.000000      0.000000
      2.08692      6.26075      0.00000        -0.000000     -0.000000      0.000000
      2.08692      6.26075      4.17383         0.000000      0.000000     -0.000000
      6.26075      2.08692      0.00000        -0.000000     -0.000000      0.000000
      6.26075      2.08692      4.17383        -0.000000      0.000000     -0.000000
      6.26075      6.26075      0.00000         0.000000      0.000000     -0.000000
      6.26075      6.26075      4.17383        -0.000000     -0.000000      0.000000
      2.08692      0.00000      2.08692        -0.000000     -0.000000     -0.000000
      2.08692      0.00000      6.26075         0.000000      0.000000      0.000000
      2.08692      4.17383      2.08692         0.000000      0.000000     -0.000000
      2.08692      4.17383      6.26075        -0.000000     -0.000000      0.000000
      6.26075      0.00000      2.08692         0.000000      0.000000     -0.000000
      6.26075      0.00000      6.26075        -0.000000     -0.000000      0.000000
      6.26075      4.17383      2.08692        -0.000000     -0.000000     -0.000000
      6.26075      4.17383      6.26075         0.000000      0.000000     -0.000000
      0.00000      2.08692      2.08692         0.000000     -0.000000      0.000000
      0.00000      2.08692      6.26075        -0.000000     -0.000000     -0.000000
      0.00000      6.26075      2.08692        -0.000000     -0.000000      0.000000
      0.00000      6.26075      6.26075         0.000000      0.000000      0.000000
      4.17383      2.08692      2.08692        -0.000000     -0.000000     -0.000000
      4.17383      2.08692      6.26075         0.000000     -0.000000     -0.000000
      4.17383      6.26075      2.08692         0.000000      0.000000     -0.000000
      4.17383      6.26075      6.26075        -0.000000     -0.000000      0.000000
      2.08692      2.08692      2.08692         0.000000     -0.000000     -0.000000
      2.08692      2.08692      6.26075        -0.000000     -0.000000     -0.000000
      2.08692      6.26075      2.08692         0.000000      0.000000     -0.000000
      2.08692      6.26075      6.26075        -0.000000      0.000000     -0.000000
      6.26075      2.08692      2.08692         0.000000     -0.000000     -0.000000
      6.26075      2.08692      6.26075         0.000000     -0.000000      0.000000
      6.26075      6.26075      2.08692        -0.000000     -0.000000     -0.000000
      6.26075      6.26075      6.26075         0.000000      0.000000     -0.000000
      0.00000      0.00000      2.08692        -0.000000      0.000000      0.000000
      0.00000      0.00000      6.26075         0.000000     -0.000000     -0.000000
      0.00000      4.17383      2.08692         0.000000     -0.000000     -0.000000
      0.00000      4.17383      6.26075         0.000000      0.000000      0.000000
      4.17383      0.00000      2.08692        -0.000000      0.000000      0.000000
      4.17383      0.00000      6.26075         0.000000      0.000000     -0.000000
      4.17383      4.17383      2.08692        -0.000000     -0.000000     -0.000000
      4.17383      4.17383      6.26075         0.000000      0.000000      0.000000
      0.00000      2.08692      0.00000        -0.000000      0.000000      0.000000
      0.00000      2.08692      4.17383         0.000000     -0.000000     -0.000000
      0.00000      6.26075      0.00000         0.000000      0.000000      0.000000
      0.00000      6.26075      4.17383         0.000000      0.000000      0.000000
      4.17383      2.08692      0.00000         0.000000     -0.000000      0.000000
      4.17383      2.08692      4.17383        -0.000000     -0.000000     -0.000000
      4.17383      6.26075      0.00000         0.000000      0.000000      0.000000
      4.17383      6.26075      4.17383         0.000000      0.000000      0.000000
      2.08692      0.00000      0.00000        -0.000000     -0.000000      0.000000
      2.08692      0.00000      4.17383        -0.000000      0.000000      0.000000
      2.08692      4.17383      0.00000        -0.000000     -0.000000     -0.000000
      2.08692      4.17383      4.17383        -0.000000     -0.000000     -0.000000
      6.26075      0.00000      0.00000        -0.000000     -0.000000      0.000000
      6.26075      0.00000      4.17383        -0.000000      0.000000     -0.000000
      6.26075      4.17383      0.00000        -0.000000      0.000000      0.000000
      6.26075      4.17383      4.17383         0.000000      0.000000      0.000000
 -----------------------------------------------------------------------------------
    total drift:                                0.000000      0.000000     -0.000000


--------------------------------------------------------------------------------------------------------



  FREE ENERGIE OF THE ION-ELECTRON SYSTEM (eV)
  ---------------------------------------------------
  free  energy   TOTEN  =      -392.99854015 eV

  energy  without entropy=     -392.99827385  energy(sigma->0) =     -392.99840700
 


--------------------------------------------------------------------------------------------------------


    POTLOK:  cpu time    1.3575: real time    1.3569


--------------------------------------------------------------------------------------------------------


 writing wavefunctions
     LOOP+:  cpu time  539.9952: real time  540.3772
    4ORBIT:  cpu time    0.0000: real time    0.0000
 


 total charge     
 
# of ion       s       p       d       f       tot
--------------------------------------------------
    1        2.149   6.210   7.852   0.009  16.220
    2        2.149   6.210   7.852   0.009  16.220
    3        2.149   6.210   7.852   0.009  16.220
    4        2.149   6.210   7.852   0.009  16.220
    5        2.149   6.210   7.852   0.009  16.220
    6        2.149   6.210   7.852   0.009  16.220
    7        2.149   6.210   7.852   0.009  16.220
    8        2.149   6.210   7.852   0.009  16.220
    9        2.149   6.210   7.852   0.009  16.220
   10        2.149   6.210   7.852   0.009  16.220
   11        2.149   6.210   7.852   0.009  16.220
   12        2.149   6.210   7.852   0.009  16.220
   13        2.149   6.210   7.852   0.009  16.220
   14        2.149   6.210   7.852   0.009  16.220
   15        2.149   6.210   7.852   0.009  16.220
   16        2.149   6.210   7.852   0.009  16.220
   17        2.149   6.210   7.852   0.009  16.220
   18        2.149   6.210   7.852   0.009  16.220
   19        2.149   6.210   7.852   0.009  16.220
   20        2.149   6.210   7.852   0.009  16.220
   21        2.149   6.210   7.852   0.009  16.220
   22        2.149   6.210   7.852   0.009  16.220
   23        2.149   6.210   7.852   0.009  16.220
   24        2.149   6.210   7.852   0.009  16.220
   25        2.149   6.210   7.852   0.009  16.220
   26        2.149   6.210   7.852   0.009  16.220
   27        2.149   6.210   7.852   0.009  16.220
   28        2.149   6.210   7.852   0.009  16.220
   29        2.149   6.210   7.852   0.009  16.220
   30        2.149   6.210   7.852   0.009  16.220
   31        2.149   6.210   7.852   0.009  16.220
   32        2.149   6.210   7.852   0.009  16.220
   33        1.636   3.514   0.021   0.000   5.170
   34        1.636   3.514   0.021   0.000   5.170
   35        1.636   3.514   0.021   0.000   5.170
   36        1.636   3.514   0.021   0.000   5.170
   37        1.636   3.514   0.021   0.000   5.170
   38        1.636   3.514   0.021   0.000   5.170
   39        1.636   3.514   0.021   0.000   5.170
   40        1.636   3.514   0.021   0.000   5.170
   41        1.635   3.515   0.021   0.000   5.171
   42        1.635   3.515   0.021   0.000   5.171
   43        1.635   3.515   0.021   0.000   5.171
   44        1.635   3.515   0.021   0.000   5.171
   45        1.635   3.515   0.021   0.000   5.171
   46        1.635   3.515   0.021   0.000   5.171
   47        1.635   3.515   0.021   0.000   5.171
   48        1.635   3.515   0.021   0.000   5.171
   49        1.635   3.515   0.021   0.000   5.171
   50        1.635   3.515   0.021   0.000   5.171
   51        1.635   3.515   0.021   0.000   5.171
   52        1.635   3.515   0.021   0.000   5.171
   53        1.635   3.515   0.021   0.000   5.171
   54        1.635   3.515   0.021   0.000   5.171
   55        1.635   3.515   0.021   0.000   5.171
   56        1.635   3.515   0.021   0.000   5.171
   57        1.635   3.515   0.021   0.000   5.171
   58        1.635   3.515   0.021   0.000   5.171
   59        1.635   3.515   0.021   0.000   5.171
   60        1.635   3.515   0.021   0.000   5.171
   61        1.635   3.515   0.021   0.000   5.171
   62        1.635   3.515   0.021   0.000   5.171
   63        1.635   3.515   0.021   0.000   5.171
   64        1.635   3.515   0.021   0.000   5.171
--------------------------------------------------
tot        121.089 311.189 251.935   0.295 684.508

 


 magnetization (x)
 
# of ion       s       p       d       f       tot
--------------------------------------------------
    1        0.007   0.008   0.626   0.000   0.641
    2        0.007   0.008   0.626   0.000   0.641
    3        0.007   0.008   0.626   0.000   0.641
    4        0.007   0.008   0.626   0.000   0.641
    5        0.007   0.008   0.626   0.000   0.641
    6        0.007   0.008   0.626   0.000   0.641
    7        0.007   0.008   0.626   0.000   0.641
    8        0.007   0.008   0.626   0.000   0.641
    9        0.007   0.008   0.626   0.000   0.641
   10        0.007   0.008   0.626   0.000   0.641
   11        0.007   0.008   0.626   0.000   0.641
   12        0.007   0.008   0.626   0.000   0.641
   13        0.007   0.008   0.626   0.000   0.641
   14        0.007   0.008   0.626   0.000   0.641
   15        0.007   0.008   0.626   0.000   0.641
   16        0.007   0.008   0.626   0.000   0.641
   17       -0.007  -0.008  -0.626  -0.000  -0.641
   18       -0.007  -0.008  -0.626  -0.000  -0.641
   19       -0.007  -0.008  -0.626  -0.000  -0.641
   20       -0.007  -0.008  -0.626  -0.000  -0.641
   21       -0.007  -0.008  -0.626  -0.000  -0.641
   22       -0.007  -0.008  -0.626  -0.000  -0.641
   23       -0.007  -0.008  -0.626  -0.000  -0.641
   24       -0.007  -0.008  -0.626  -0.000  -0.641
   25       -0.007  -0.008  -0.626  -0.000  -0.641
   26       -0.007  -0.008  -0.626  -0.000  -0.641
   27       -0.007  -0.008  -0.626  -0.000  -0.641
   28       -0.007  -0.008  -0.626  -0.000  -0.641
   29       -0.007  -0.008  -0.626  -0.000  -0.641
   30       -0.007  -0.008  -0.626  -0.000  -0.641
   31       -0.007  -0.008  -0.626  -0.000  -0.641
   32       -0.007  -0.008  -0.626  -0.000  -0.641
   33       -0.005  -0.030  -0.000   0.000  -0.036
   34       -0.005  -0.030  -0.000   0.000  -0.036
   35       -0.005  -0.030  -0.000   0.000  -0.036
   36       -0.005  -0.030  -0.000   0.000  -0.036
   37       -0.005  -0.030  -0.000   0.000  -0.036
   38       -0.005  -0.030  -0.000   0.000  -0.036
   39       -0.005  -0.030  -0.000   0.000  -0.036
   40       -0.005  -0.030  -0.000   0.000  -0.036
   41       -0.005  -0.030  -0.000   0.000  -0.036
   42       -0.005  -0.030  -0.000   0.000  -0.036
   43       -0.005  -0.030  -0.000   0.000  -0.036
   44       -0.005  -0.030  -0.000   0.000  -0.036
   45       -0.005  -0.030  -0.000   0.000  -0.036
   46       -0.005  -0.030  -0.000   0.000  -0.036
   47       -0.005  -0.030  -0.000   0.000  -0.036
   48       -0.005  -0.030  -0.000   0.000  -0.036
   49        0.005   0.030   0.000   0.000   0.036
   50        0.005   0.030   0.000   0.000   0.036
   51        0.005   0.030   0.000   0.000   0.036
   52        0.005   0.030   0.000   0.000   0.036
   53        0.005   0.030   0.000   0.000   0.036
   54        0.005   0.030   0.000   0.000   0.036
   55        0.005   0.030   0.000   0.000   0.036
   56        0.005   0.030   0.000   0.000   0.036
   57        0.005   0.030   0.000   0.000   0.036
   58        0.005   0.030   0.000   0.000   0.036
   59        0.005   0.030   0.000   0.000   0.036
   60        0.005   0.030   0.000   0.000   0.036
   61        0.005   0.030   0.000   0.000   0.036
   62        0.005   0.030   0.000   0.000   0.036
   63        0.005   0.030   0.000   0.000   0.036
   64        0.005   0.030   0.000   0.000   0.036
--------------------------------------------------
tot          0.000   0.000   0.003   0.000   0.003

 
