 vasp.5.4.4.18Apr17-6-g9f103f2a35 (build Oct 10 2019 09:51:33) complex          
  
 executed on   carbon_intel19_gpu date 2020.09.25  17:07:31
 running on    1 total cores
 distrk:  each k-point on    1 cores,    1 groups
 distr:  one band on NCORES_PER_BAND=   1 cores,    1 groups


--------------------------------------------------------------------------------------------------------


 INCAR:
 POTCAR:    PAW_PBE Ni_sv_GW 05Dec2013            
 POTCAR:    PAW_PBE O_GW 19Mar2012                
 POTCAR:    PAW_PBE Ni_sv_GW 05Dec2013            
   VRHFIN =Ni:                                                                  
   LEXCH  = PE                                                                  
   EATOM  =  4642.8712 eV,  341.2414 Ry                                         
                                                                                
   TITEL  = PAW_PBE Ni_sv_GW 05Dec2013                                          
   LULTRA =        F    use ultrasoft PP ?                                      
   IUNSCR =        1    unscreen: 0-lin 1-nonlin 2-no                           
   RPACOR =    1.400    partial core radius                                     
   POMASS =   58.690; ZVAL   =   18.000    mass and valenz                      
   RCORE  =    1.900    outmost cutoff radius                                   
   RWIGS  =    2.100; RWIGS  =    1.111    wigner-seitz radius (au A)           
   ENMAX  =  389.645; ENMIN  =  292.234 eV                                      
   RCLOC  =    1.301    cutoff for local pot                                    
   LCOR   =        T    correct aug charges                                     
   LPAW   =        T    paw PP                                                  
   EAUG   = 1036.387                                                            
   RMAX   =    1.945    core radius for proj-oper                               
   RAUG   =    1.300    factor for augmentation sphere                          
   RDEP   =    1.972    radius for radial grids                                 
   RDEPT  =    1.600    core radius for aug-charge                              
                                                                                
   Atomic configuration                                                         
    8 entries                                                                   
     n  l   j            E        occ.                                          
     1  0  0.50     -8203.3308   2.0000                                         
     2  0  0.50      -972.7019   2.0000                                         
     2  1  1.50      -835.6236   6.0000                                         
     3  0  0.50      -102.6944   2.0000                                         
     3  1  1.50       -63.2363   6.0000                                         
     3  1  1.50       -68.0291   0.0000                                         
     3  2  2.50        -1.9692  10.0000                                         
     4  3  2.50        -1.3606   0.0000                                         
   Description                                                                  
     l       E           TYP  RCUT    TYP  RCUT                                 
     0   -102.6944069     23  1.400                                             
     0      1.3605826     23  1.700                                             
     0    204.0873900     23  1.400                                             
     1    -63.2363356     23  1.650                                             
     1    -68.0291300     23  1.650                                             
     1    136.0582600     23  1.650                                             
     2     -1.9691936     23  1.900                                             
     2     27.2116520     23  1.900                                             
     2    136.0582600     23  1.900                                             
     3     27.2116520     23  1.900                                             
     3    136.0582600     23  1.900                                             
  local pseudopotential read in
  partial core-charges read in
  partial kinetic energy density read in
  kinetic energy density of atom read in
  atomic valenz-charges read in
  non local Contribution for L=           0  read in
    real space projection operators read in
  non local Contribution for L=           0  read in
    real space projection operators read in
  non local Contribution for L=           0  read in
    real space projection operators read in
  non local Contribution for L=           1  read in
    real space projection operators read in
  non local Contribution for L=           1  read in
    real space projection operators read in
  non local Contribution for L=           1  read in
    real space projection operators read in
  non local Contribution for L=           2  read in
    real space projection operators read in
  non local Contribution for L=           2  read in
    real space projection operators read in
  non local Contribution for L=           2  read in
    real space projection operators read in
  non local Contribution for L=           3  read in
    real space projection operators read in
  non local Contribution for L=           3  read in
    real space projection operators read in
    PAW grid and wavefunctions read in
 
   number of l-projection  operators is LMAX  =          11
   number of lm-projection operators is LMMAX =          41
 
 POTCAR:    PAW_PBE O_GW 19Mar2012                
   VRHFIN =O: s2p4                                                              
   LEXCH  = PE                                                                  
   EATOM  =   432.3788 eV,   31.7789 Ry                                         
                                                                                
   TITEL  = PAW_PBE O_GW 19Mar2012                                              
   LULTRA =        F    use ultrasoft PP ?                                      
   IUNSCR =        1    unscreen: 0-lin 1-nonlin 2-no                           
   RPACOR =    0.800    partial core radius                                     
   POMASS =   16.000; ZVAL   =    6.000    mass and valenz                      
   RCORE  =    1.600    outmost cutoff radius                                   
   RWIGS  =    1.600; RWIGS  =    0.847    wigner-seitz radius (au A)           
   ENMAX  =  434.431; ENMIN  =  325.824 eV                                      
   ICORE  =        3    local potential                                         
   LCOR   =        T    correct aug charges                                     
   LPAW   =        T    paw PP                                                  
   EAUG   = 1139.609                                                            
   DEXC   =    0.000                                                            
   RMAX   =    1.629    core radius for proj-oper                               
   RAUG   =    1.300    factor for augmentation sphere                          
   RDEP   =    1.652    radius for radial grids                                 
   RDEPT  =    1.200    core radius for aug-charge                              
                                                                                
   Atomic configuration                                                         
    5 entries                                                                   
     n  l   j            E        occ.                                          
     1  0  0.50      -514.6923   2.0000                                         
     2  0  0.50       -23.9615   2.0000                                         
     2  1  0.50        -9.0305   4.0000                                         
     3  2  1.50        -9.5241   0.0000                                         
     4  3  2.50        -9.5241   0.0000                                         
   Description                                                                  
     l       E           TYP  RCUT    TYP  RCUT                                 
     0    -23.9615316     23  1.150                                             
     0    -25.3221142     23  1.150                                             
     0    244.9048680     23  1.300                                             
     1     -9.0304908     23  1.500                                             
     1     -6.9258396     23  1.500                                             
     1    122.4524340     23  1.500                                             
     2     13.6058260     23  1.500                                             
     2    190.4815640     23  1.600                                             
     3     54.4233040     23  1.400                                             
  local pseudopotential read in
  partial core-charges read in
  partial kinetic energy density read in
  kinetic energy density of atom read in
  atomic valenz-charges read in
  non local Contribution for L=           0  read in
    real space projection operators read in
  non local Contribution for L=           0  read in
    real space projection operators read in
  non local Contribution for L=           0  read in
    real space projection operators read in
  non local Contribution for L=           1  read in
    real space projection operators read in
  non local Contribution for L=           1  read in
    real space projection operators read in
  non local Contribution for L=           1  read in
    real space projection operators read in
  non local Contribution for L=           2  read in
    real space projection operators read in
  non local Contribution for L=           2  read in
    real space projection operators read in
    PAW grid and wavefunctions read in
 
   number of l-projection  operators is LMAX  =           8
   number of lm-projection operators is LMMAX =          22
 
 Optimization of the real space projectors (new method)

 maximal supplied QI-value         = 19.84
 optimisation between [QCUT,QGAM] = [ 12.50, 25.00] = [ 43.76,175.03] Ry 
 Optimized for a Real-space Cutoff    1.31 Angstroem

   l    n(q)    QCUT    max X(q) W(low)/X(q) W(high)/X(q)  e(spline) 
   0     10    12.501     2.300    0.65E-05    0.25E-06    0.79E-07
   0     10    12.501     7.576    0.25E-04    0.52E-05    0.18E-06
   0     10    12.501     1.388    0.34E-04    0.75E-05    0.48E-06
   1      9    12.501    11.002    0.11E-03    0.24E-03    0.54E-06
   1      9    12.501    14.537    0.90E-04    0.23E-03    0.70E-06
   1      9    12.501     3.893    0.34E-04    0.51E-04    0.68E-06
   2      9    12.501    14.869    0.32E-03    0.35E-03    0.49E-06
   2      9    12.501     7.291    0.12E-03    0.20E-03    0.30E-06
   2      9    12.501     6.907    0.35E-03    0.37E-03    0.52E-06
   3      8    12.501    10.598    0.33E-03    0.15E-03    0.57E-06
   3      8    12.501     2.997    0.28E-03    0.16E-03    0.51E-06
 Optimization of the real space projectors (new method)

 maximal supplied QI-value         = 23.62
 optimisation between [QCUT,QGAM] = [ 12.52, 25.04] = [ 43.89,175.56] Ry 
 Optimized for a Real-space Cutoff    1.35 Angstroem

   l    n(q)    QCUT    max X(q) W(low)/X(q) W(high)/X(q)  e(spline) 
   0     10    12.519   116.464    0.13E-03    0.15E-03    0.46E-05
   0     10    12.519   116.329    0.13E-03    0.15E-03    0.44E-05
   0     10    12.519     0.942    0.35E-04    0.90E-04    0.23E-05
   1     10    12.519   133.003    0.28E-03    0.77E-04    0.26E-05
   1     10    12.519   116.443    0.28E-03    0.76E-04    0.26E-05
   1     10    12.519     2.481    0.45E-03    0.95E-04    0.45E-05
   2      9    12.519     2.237    0.21E-04    0.33E-04    0.21E-06
   2      9    12.519     2.497    0.16E-03    0.12E-03    0.32E-06
  PAW_PBE Ni_sv_GW 05Dec2013            :
 energy of atom  1       EATOM=-4642.8712
 kinetic energy error for atom=    0.0555 (will be added to EATOM!!)
  PAW_PBE O_GW 19Mar2012                :
 energy of atom  2       EATOM= -432.3788
 kinetic energy error for atom=    0.0188 (will be added to EATOM!!)
 
 
 POSCAR: NiO                                     
  positions in direct lattice
  No initial velocities read in
 exchange correlation table for  LEXCH =        8
   RHO(1)=    0.500       N(1)  =     2000
   RHO(2)=  100.500       N(2)  =     4000
 


--------------------------------------------------------------------------------------------------------


 ion  position               nearest neighbor table
   1  0.000  0.000  0.000-  36 2.09  38 2.09  45 2.09  50 2.09  53 2.09  64 2.09
   2  0.250  0.250  0.500-  33 2.09  39 2.09  46 2.09  51 2.09  54 2.09  61 2.09
   3  0.500  0.500  0.000-  34 2.09  40 2.09  47 2.09  52 2.09  55 2.09  62 2.09
   4  0.750  0.750  0.500-  35 2.09  37 2.09  48 2.09  49 2.09  56 2.09  63 2.09
   5  0.250  0.500  0.250-  33 2.09  40 2.09  42 2.09  52 2.09  54 2.09  57 2.09
   6  0.500  0.750  0.750-  34 2.09  37 2.09  43 2.09  49 2.09  55 2.09  58 2.09
   7  0.750  0.000  0.250-  35 2.09  38 2.09  44 2.09  50 2.09  56 2.09  59 2.09
   8  0.000  0.250  0.750-  36 2.09  39 2.09  41 2.09  51 2.09  53 2.09  60 2.09
   9  0.500  0.000  0.500-  37 2.09  44 2.09  46 2.09  56 2.09  58 2.09  61 2.09
  10  0.750  0.250  0.000-  38 2.09  41 2.09  47 2.09  53 2.09  59 2.09  62 2.09
  11  0.000  0.500  0.500-  39 2.09  42 2.09  48 2.09  54 2.09  60 2.09  63 2.09
  12  0.250  0.750  0.000-  40 2.09  43 2.09  45 2.09  55 2.09  57 2.09  64 2.09
  13  0.750  0.500  0.750-  34 2.09  41 2.09  48 2.09  49 2.09  60 2.09  62 2.09
  14  0.000  0.750  0.250-  35 2.09  42 2.09  45 2.09  50 2.09  57 2.09  63 2.09
  15  0.250  0.000  0.750-  36 2.09  43 2.09  46 2.09  51 2.09  58 2.09  64 2.09
  16  0.500  0.250  0.250-  33 2.09  44 2.09  47 2.09  52 2.09  59 2.09  61 2.09
  17  0.500  0.500  0.500-  34 2.09  37 2.09  48 2.09  52 2.09  54 2.09  61 2.09
  18  0.750  0.750  0.000-  35 2.09  38 2.09  45 2.09  49 2.09  55 2.09  62 2.09
  19  0.000  0.000  0.500-  36 2.09  39 2.09  46 2.09  50 2.09  56 2.09  63 2.09
  20  0.250  0.250  0.000-  33 2.09  40 2.09  47 2.09  51 2.09  53 2.09  64 2.09
  21  0.750  0.000  0.750-  36 2.09  38 2.09  41 2.09  49 2.09  56 2.09  58 2.09
  22  0.000  0.250  0.250-  33 2.09  39 2.09  42 2.09  50 2.09  53 2.09  59 2.09
  23  0.250  0.500  0.750-  34 2.09  40 2.09  43 2.09  51 2.09  54 2.09  60 2.09
  24  0.500  0.750  0.250-  35 2.09  37 2.09  44 2.09  52 2.09  55 2.09  57 2.09
  25  0.000  0.500  0.000-  40 2.09  42 2.09  45 2.09  53 2.09  60 2.09  62 2.09
  26  0.250  0.750  0.500-  37 2.09  43 2.09  46 2.09  54 2.09  57 2.09  63 2.09
  27  0.500  0.000  0.000-  38 2.09  44 2.09  47 2.09  55 2.09  58 2.09  64 2.09
  28  0.750  0.250  0.500-  39 2.09  41 2.09  48 2.09  56 2.09  59 2.09  61 2.09
  29  0.250  0.000  0.250-  33 2.09  44 2.09  46 2.09  50 2.09  57 2.09  64 2.09
  30  0.500  0.250  0.750-  34 2.09  41 2.09  47 2.09  51 2.09  58 2.09  61 2.09
  31  0.750  0.500  0.250-  35 2.09  42 2.09  48 2.09  52 2.09  59 2.09  62 2.09
  32  0.000  0.750  0.750-  36 2.09  43 2.09  45 2.09  49 2.09  60 2.09  63 2.09
  33  0.250  0.250  0.250-   2 2.09   5 2.09  16 2.09  20 2.09  22 2.09  29 2.09
  34  0.500  0.500  0.750-   3 2.09   6 2.09  13 2.09  17 2.09  23 2.09  30 2.09
  35  0.750  0.750  0.250-   4 2.09   7 2.09  14 2.09  18 2.09  24 2.09  31 2.09
  36  0.000  0.000  0.750-   1 2.09   8 2.09  15 2.09  19 2.09  21 2.09  32 2.09
  37  0.500  0.750  0.500-   4 2.09   6 2.09   9 2.09  17 2.09  24 2.09  26 2.09
  38  0.750  0.000  0.000-   1 2.09   7 2.09  10 2.09  18 2.09  21 2.09  27 2.09
  39  0.000  0.250  0.500-   2 2.09   8 2.09  11 2.09  19 2.09  22 2.09  28 2.09
  40  0.250  0.500  0.000-   3 2.09   5 2.09  12 2.09  20 2.09  23 2.09  25 2.09
  41  0.750  0.250  0.750-   8 2.09  10 2.09  13 2.09  21 2.09  28 2.09  30 2.09
  42  0.000  0.500  0.250-   5 2.09  11 2.09  14 2.09  22 2.09  25 2.09  31 2.09
  43  0.250  0.750  0.750-   6 2.09  12 2.09  15 2.09  23 2.09  26 2.09  32 2.09
  44  0.500  0.000  0.250-   7 2.09   9 2.09  16 2.09  24 2.09  27 2.09  29 2.09
  45  0.000  0.750  0.000-   1 2.09  12 2.09  14 2.09  18 2.09  25 2.09  32 2.09
  46  0.250  0.000  0.500-   2 2.09   9 2.09  15 2.09  19 2.09  26 2.09  29 2.09
  47  0.500  0.250  0.000-   3 2.09  10 2.09  16 2.09  20 2.09  27 2.09  30 2.09
  48  0.750  0.500  0.500-   4 2.09  11 2.09  13 2.09  17 2.09  28 2.09  31 2.09
  49  0.750  0.750  0.750-   4 2.09   6 2.09  13 2.09  18 2.09  21 2.09  32 2.09
  50  0.000  0.000  0.250-   1 2.09   7 2.09  14 2.09  19 2.09  22 2.09  29 2.09
  51  0.250  0.250  0.750-   2 2.09   8 2.09  15 2.09  20 2.09  23 2.09  30 2.09
  52  0.500  0.500  0.250-   3 2.09   5 2.09  16 2.09  17 2.09  24 2.09  31 2.09
  53  0.000  0.250  0.000-   1 2.09   8 2.09  10 2.09  20 2.09  22 2.09  25 2.09
  54  0.250  0.500  0.500-   2 2.09   5 2.09  11 2.09  17 2.09  23 2.09  26 2.09
  55  0.500  0.750  0.000-   3 2.09   6 2.09  12 2.09  18 2.09  24 2.09  27 2.09
  56  0.750  0.000  0.500-   4 2.09   7 2.09   9 2.09  19 2.09  21 2.09  28 2.09
  57  0.250  0.750  0.250-   5 2.09  12 2.09  14 2.09  24 2.09  26 2.09  29 2.09
  58  0.500  0.000  0.750-   6 2.09   9 2.09  15 2.09  21 2.09  27 2.09  30 2.09
  59  0.750  0.250  0.250-   7 2.09  10 2.09  16 2.09  22 2.09  28 2.09  31 2.09
  60  0.000  0.500  0.750-   8 2.09  11 2.09  13 2.09  23 2.09  25 2.09  32 2.09
  61  0.500  0.250  0.500-   2 2.09   9 2.09  16 2.09  17 2.09  28 2.09  30 2.09
  62  0.750  0.500  0.000-   3 2.09  10 2.09  13 2.09  18 2.09  25 2.09  31 2.09
  63  0.000  0.750  0.500-   4 2.09  11 2.09  14 2.09  19 2.09  26 2.09  32 2.09
  64  0.250  0.000  0.000-   1 2.09  12 2.09  15 2.09  20 2.09  27 2.09  29 2.09
 
  LATTYP: Found a simple cubic cell.
 ALAT       =     8.3781150000
  
  Lattice vectors:
  
 A1 = (   8.3781150000,   0.0000000000,   0.0000000000)
 A2 = (   0.0000000000,   8.3781150000,   0.0000000000)
 A3 = (   0.0000000000,   0.0000000000,   8.3781150000)


Analysis of symmetry for initial positions (statically):
=====================================================================
 Subroutine PRICEL returns following result:
 
  LATTYP: Found a face centered cubic cell.
 ALAT       =     4.1890575000
  
  Lattice vectors:
  
 A1 = (   2.0945287500,   2.0945287500,   0.0000000000)
 A2 = (   2.0945287500,   0.0000000000,  -2.0945287500)
 A3 = (   0.0000000000,   2.0945287500,  -2.0945287500)
 
  32 primitive cells build up your supercell.
 

 Routine SETGRP: Setting up the symmetry group for a 
 simple cubic supercell.


 Subroutine GETGRP returns: Found 48 space group operations
 (whereof 48 operations were pure point group operations)
 out of a pool of 48 trial point group operations.


The static configuration has the point symmetry O_h .


Analysis of symmetry for dynamics (positions and initial velocities):
=====================================================================
 Subroutine PRICEL returns following result:
 
  LATTYP: Found a face centered cubic cell.
 ALAT       =     4.1890575000
  
  Lattice vectors:
  
 A1 = (   2.0945287500,   2.0945287500,   0.0000000000)
 A2 = (   2.0945287500,   0.0000000000,  -2.0945287500)
 A3 = (   0.0000000000,   2.0945287500,  -2.0945287500)
 
  32 primitive cells build up your supercell.
 

 Routine SETGRP: Setting up the symmetry group for a 
 simple cubic supercell.


 Subroutine GETGRP returns: Found 48 space group operations
 (whereof 48 operations were pure point group operations)
 out of a pool of 48 trial point group operations.


The dynamic configuration has the point symmetry O_h .


Analysis of structural, dynamic, and magnetic symmetry:
=====================================================================
 Subroutine PRICEL returns following result:
 
  LATTYP: Found a face centered cubic cell.
 ALAT       =     4.1890575000
  
  Lattice vectors:
  
 A1 = (   2.0945287500,   2.0945287500,   0.0000000000)
 A2 = (   2.0945287500,   0.0000000000,  -2.0945287500)
 A3 = (   0.0000000000,   2.0945287500,  -2.0945287500)
 
  32 primitive cells build up your supercell.
 

 Routine SETGRP: Setting up the symmetry group for a 
 simple cubic supercell.


 Subroutine GETGRP returns: Found 12 space group operations
 (whereof 12 operations were pure point group operations)
 out of a pool of 48 trial point group operations.


The magnetic configuration has the point symmetry D_3d.


 Subroutine INISYM returns: Found 12 space group operations
 (whereof 12 operations are pure point group operations),
 and found    32 'primitive' translations

 
 
 KPOINTS: k-points                                

Automatic generation of k-mesh.
Space group operators:
 irot       det(A)        alpha          n_x          n_y          n_z        tau_x        tau_y        tau_z
    1     1.000000     0.000000     1.000000     0.000000     0.000000     0.000000     0.000000     0.000000
    2    -1.000000     0.000000     1.000000     0.000000     0.000000     0.000000     0.000000     0.000000
    3     1.000000   120.000000    -0.577350    -0.577350    -0.577350     0.000000     0.000000     0.000000
    4    -1.000000   120.000000    -0.577350    -0.577350    -0.577350     0.000000     0.000000     0.000000
    5     1.000000   120.000000     0.577350     0.577350     0.577350     0.000000     0.000000     0.000000
    6    -1.000000   120.000000     0.577350     0.577350     0.577350     0.000000     0.000000     0.000000
    7     1.000000   180.000000     0.000000    -0.707107     0.707107     0.000000     0.000000     0.000000
    8    -1.000000   180.000000     0.000000    -0.707107     0.707107     0.000000     0.000000     0.000000
    9     1.000000   180.000000     0.707107    -0.707107     0.000000     0.000000     0.000000     0.000000
   10    -1.000000   180.000000     0.707107    -0.707107     0.000000     0.000000     0.000000     0.000000
   11     1.000000   180.000000     0.707107     0.000000    -0.707107     0.000000     0.000000     0.000000
   12    -1.000000   180.000000     0.707107     0.000000    -0.707107     0.000000     0.000000     0.000000
 
 Subroutine IBZKPT returns following result:
 ===========================================
 
 Found      6 irreducible k-points:
 
 Following reciprocal coordinates:
            Coordinates               Weight
  0.000000  0.000000  0.000000      1.000000
  0.333333  0.000000  0.000000      6.000000
  0.333333  0.333333  0.000000      6.000000
 -0.333333  0.333333  0.000000      6.000000
  0.333333  0.333333  0.333333      2.000000
 -0.333333  0.333333  0.333333      6.000000
 
 Following cartesian coordinates:
            Coordinates               Weight
  0.000000  0.000000  0.000000      1.000000
  0.333333  0.000000  0.000000      6.000000
  0.333333  0.333333  0.000000      6.000000
 -0.333333  0.333333  0.000000      6.000000
  0.333333  0.333333  0.333333      2.000000
 -0.333333  0.333333  0.333333      6.000000
 


--------------------------------------------------------------------------------------------------------




 Dimension of arrays:
   k-points           NKPTS =      6   k-points in BZ     NKDIM =      6   number of bands    NBANDS=    460
   number of dos      NEDOS =    301   number of ions     NIONS =     64
   non local maximal  LDIM  =     11   non local SUM 2l+1 LMDIM =     41
   total plane-waves  NPLWV = 125000
   max r-space proj   IRMAX =   2220   max aug-charges    IRDMAX=   4892
   dimension x,y,z NGX =    50 NGY =   50 NGZ =   50
   dimension x,y,z NGXF=   100 NGYF=  100 NGZF=  100
   support grid    NGXF=   100 NGYF=  100 NGZF=  100
   ions per type =              32  32
   NGX,Y,Z   is equivalent  to a cutoff of   9.92,  9.92,  9.92 a.u.
   NGXF,Y,Z  is equivalent  to a cutoff of  19.84, 19.84, 19.84 a.u.

 SYSTEM =  NiO                                     
 POSCAR =  NiO                                     

 Startparameter for this run:
   NWRITE =      2    write-flag & timer
   PREC   = normal    normal or accurate (medium, high low for compatibility)
   ISTART =      0    job   : 0-new  1-cont  2-samecut
   ICHARG =      2    charge: 1-file 2-atom 10-const
   ISPIN  =      2    spin polarized calculation?
   LNONCOLLINEAR =      F non collinear calculations
   LSORBIT =      F    spin-orbit coupling
   INIWAV =      1    electr: 0-lowe 1-rand  2-diag
   LASPH  =      F    aspherical Exc in radial PAW
   METAGGA=      F    non-selfconsistent MetaGGA calc.

 Electronic Relaxation 1
   ENCUT  =  600.0 eV  44.10 Ry    6.64 a.u.  16.73 16.73 16.73*2*pi/ulx,y,z
   ENINI  =  600.0     initial cutoff
   ENAUG  = 1200.0 eV  augmentation charge cutoff
   NELM   =    100;   NELMIN=  2; NELMDL= -5     # of ELM steps 
   EDIFF  = 0.1E-05   stopping-criterion for ELM
   LREAL  =      T    real-space projection
   NLSPLINE    = F    spline interpolate recip. space projectors
   LCOMPAT=      F    compatible to vasp.4.4
   GGA_COMPAT  = T    GGA compatible to vasp.4.4-vasp.4.6
   LMAXPAW     = -100 max onsite density
   LMAXMIX     =    4 max onsite mixed and CHGCAR
   VOSKOWN=      0    Vosko Wilk Nusair interpolation
   ROPT   =   -0.00050  -0.00050
 Ionic relaxation
   EDIFFG = -.1E-03   stopping-criterion for IOM
   NSW    =      0    number of steps for IOM
   NBLOCK =      1;   KBLOCK =      1    inner block; outer block 
   IBRION =     -1    ionic relax: 0-MD 1-quasi-New 2-CG
   NFREE  =      1    steps in history (QN), initial steepest desc. (CG)
   ISIF   =      2    stress and relaxation
   IWAVPR =     10    prediction:  0-non 1-charg 2-wave 3-comb
   ISYM   =      2    0-nonsym 1-usesym 2-fastsym
   LCORR  =      T    Harris-Foulkes like correction to forces

   POTIM  = 0.2000    time-step for ionic-motion
   TEIN   =    0.0    initial temperature
   TEBEG  =    0.0;   TEEND  =   0.0 temperature during run
   SMASS  =  -3.00    Nose mass-parameter (am)
   estimated Nose-frequenzy (Omega)   =  0.10E-29 period in steps =****** mass=  -0.160E-26a.u.
   SCALEE = 1.0000    scale energy and forces
   NPACO  =    256;   APACO  = 16.0  distance and # of slots for P.C.
   PSTRESS=    0.0 pullay stress

  Mass of Ions in am
   POMASS =  58.69 16.00
  Ionic Valenz
   ZVAL   =  18.00  6.00
  Atomic Wigner-Seitz radii
   RWIGS  =  -1.00 -1.00
  virtual crystal weights 
   VCA    =   1.00  1.00
   NELECT =     768.0000    total number of electrons
   NUPDOWN=      -1.0000    fix difference up-down

 DOS related values:
   EMIN   =  10.00;   EMAX   =-10.00  energy-range for DOS
   EFERMI =   0.00
   ISMEAR =     0;   SIGMA  =   0.00  broadening in eV -4-tet -1-fermi 0-gaus

 Electronic relaxation 2 (details)
   IALGO  =     38    algorithm
   LDIAG  =      T    sub-space diagonalisation (order eigenvalues)
   LSUBROT=      F    optimize rotation matrix (better conditioning)
   TURBO    =      0    0=normal 1=particle mesh
   IRESTART =      0    0=no restart 2=restart with 2 vectors
   NREBOOT  =      0    no. of reboots
   NMIN     =      0    reboot dimension
   EREF     =   0.00    reference energy to select bands
   IMIX   =      4    mixing-type and parameters
     AMIX     =   0.40;   BMIX     =  1.00
     AMIX_MAG =   1.60;   BMIX_MAG =  1.00
     AMIN     =   0.10
     WC   =   100.;   INIMIX=   1;  MIXPRE=   1;  MAXMIX= -45

 Intra band minimization:
   WEIMIN = 0.0000     energy-eigenvalue tresh-hold
   EBREAK =  0.54E-09  absolut break condition
   DEPER  =   0.30     relativ break condition  

   TIME   =   0.40     timestep for ELM

  volume/ion in A,a.u.               =       9.19        62.01
  Fermi-wavevector in a.u.,A,eV,Ry     =   1.789434  3.381539 43.566843  3.202073
  Thomas-Fermi vector in A             =   2.852408
 
 Write flags
   LWAVE        =      T    write WAVECAR
   LDOWNSAMPLE  =      F    k-point downsampling of WAVECAR
   LCHARG       =      T    write CHGCAR
   LVTOT        =      F    write LOCPOT, total local potential
   LVHAR        =      F    write LOCPOT, Hartree potential only
   LELF         =      F    write electronic localiz. function (ELF)
   LORBIT       =     11    0 simple, 1 ext, 2 COOP (PROOUT), +10 PAW based schemes


 Dipole corrections
   LMONO  =      F    monopole corrections only (constant potential shift)
   LDIPOL =      F    correct potential (dipole corrections)
   IDIPOL =      0    1-x, 2-y, 3-z, 4-all directions 
   EPSILON=  1.0000000 bulk dielectric constant

 Exchange correlation treatment:
   GGA     =    --    GGA type
   LEXCH   =     8    internal setting for exchange type
   VOSKOWN=      0    Vosko Wilk Nusair interpolation
   LHFCALC =     F    Hartree Fock is set to
   LHFONE  =     F    Hartree Fock one center treatment
   AEXX    =    0.0000 exact exchange contribution

 Linear response parameters
   LEPSILON=     F    determine dielectric tensor
   LRPA    =     F    only Hartree local field effects (RPA)
   LNABLA  =     F    use nabla operator in PAW spheres
   LVEL    =     F    velocity operator in full k-point grid
   LINTERFAST=   F  fast interpolation
   KINTER  =     0    interpolate to denser k-point grid
   CSHIFT  =0.1000    complex shift for real part using Kramers Kronig
   OMEGAMAX=  -1.0    maximum frequency
   DEG_THRESHOLD= 0.2000000E-02 threshold for treating states as degnerate
   RTIME   =   -0.100 relaxation time in fs
  (WPLASMAI=    0.000 imaginary part of plasma frequency in eV, 0.658/RTIME)
   DFIELD  = 0.0000000 0.0000000 0.0000000 field for delta impulse in time
 
 Orbital magnetization related:
   ORBITALMAG=     F  switch on orbital magnetization
   LCHIMAG   =     F  perturbation theory with respect to B field
   DQ        =  0.001000  dq finite difference perturbation B field
   LLRAUG    =     F  two centre corrections for induced B field



--------------------------------------------------------------------------------------------------------


 Static calculation
 charge density and potential will be updated during run
 spin polarized calculation
 Variant of blocked Davidson
 Davidson routine will perform the subspace rotation
 perform sub-space diagonalisation
    after iterative eigenvector-optimisation
 modified Broyden-mixing scheme, WC =      100.0
 initial mixing is a Kerker type mixing with AMIX =  0.4000 and BMIX =      1.0000
 Hartree-type preconditioning will be used
 using additional bands           76
 real space projection scheme for non local part
 use partial core corrections
 calculate Harris-corrections to forces 
   (improved forces if not selfconsistent)
 use gradient corrections 
 use of overlap-Matrix (Vanderbilt PP)
 Gauss-broadening in eV      SIGMA  =   0.00


--------------------------------------------------------------------------------------------------------


  energy-cutoff  :      600.00
  volume of cell :      588.08
      direct lattice vectors                 reciprocal lattice vectors
     8.378115000  0.000000000  0.000000000     0.119358591  0.000000000  0.000000000
     0.000000000  8.378115000  0.000000000     0.000000000  0.119358591  0.000000000
     0.000000000  0.000000000  8.378115000     0.000000000  0.000000000  0.119358591

  length of vectors
     8.378115000  8.378115000  8.378115000     0.119358591  0.119358591  0.119358591


 
 k-points in units of 2pi/SCALE and weight: k-points                                
   0.00000000  0.00000000  0.00000000       0.037
   0.33333333  0.00000000  0.00000000       0.222
   0.33333333  0.33333333  0.00000000       0.222
  -0.33333333  0.33333333  0.00000000       0.222
   0.33333333  0.33333333  0.33333333       0.074
  -0.33333333  0.33333333  0.33333333       0.222
 
 k-points in reciprocal lattice and weights: k-points                                
   0.00000000  0.00000000  0.00000000       0.037
   0.33333333  0.00000000  0.00000000       0.222
   0.33333333  0.33333333  0.00000000       0.222
  -0.33333333  0.33333333  0.00000000       0.222
   0.33333333  0.33333333  0.33333333       0.074
  -0.33333333  0.33333333  0.33333333       0.222
 
 position of ions in fractional coordinates (direct lattice) 
   0.00000000  0.00000000  0.00000000
   0.25000000  0.25000000  0.50000000
   0.50000000  0.50000000  0.00000000
   0.75000000  0.75000000  0.50000000
   0.25000000  0.50000000  0.25000000
   0.50000000  0.75000000  0.75000000
   0.75000000  0.00000000  0.25000000
   0.00000000  0.25000000  0.75000000
   0.50000000  0.00000000  0.50000000
   0.75000000  0.25000000  0.00000000
   0.00000000  0.50000000  0.50000000
   0.25000000  0.75000000  0.00000000
   0.75000000  0.50000000  0.75000000
   0.00000000  0.75000000  0.25000000
   0.25000000  0.00000000  0.75000000
   0.50000000  0.25000000  0.25000000
   0.50000000  0.50000000  0.50000000
   0.75000000  0.75000000  0.00000000
   0.00000000  0.00000000  0.50000000
   0.25000000  0.25000000  0.00000000
   0.75000000  0.00000000  0.75000000
   0.00000000  0.25000000  0.25000000
   0.25000000  0.50000000  0.75000000
   0.50000000  0.75000000  0.25000000
   0.00000000  0.50000000  0.00000000
   0.25000000  0.75000000  0.50000000
   0.50000000  0.00000000  0.00000000
   0.75000000  0.25000000  0.50000000
   0.25000000  0.00000000  0.25000000
   0.50000000  0.25000000  0.75000000
   0.75000000  0.50000000  0.25000000
   0.00000000  0.75000000  0.75000000
   0.25000000  0.25000000  0.25000000
   0.50000000  0.50000000  0.75000000
   0.75000000  0.75000000  0.25000000
   0.00000000  0.00000000  0.75000000
   0.50000000  0.75000000  0.50000000
   0.75000000  0.00000000  0.00000000
   0.00000000  0.25000000  0.50000000
   0.25000000  0.50000000  0.00000000
   0.75000000  0.25000000  0.75000000
   0.00000000  0.50000000  0.25000000
   0.25000000  0.75000000  0.75000000
   0.50000000  0.00000000  0.25000000
   0.00000000  0.75000000  0.00000000
   0.25000000  0.00000000  0.50000000
   0.50000000  0.25000000  0.00000000
   0.75000000  0.50000000  0.50000000
   0.75000000  0.75000000  0.75000000
   0.00000000  0.00000000  0.25000000
   0.25000000  0.25000000  0.75000000
   0.50000000  0.50000000  0.25000000
   0.00000000  0.25000000  0.00000000
   0.25000000  0.50000000  0.50000000
   0.50000000  0.75000000  0.00000000
   0.75000000  0.00000000  0.50000000
   0.25000000  0.75000000  0.25000000
   0.50000000  0.00000000  0.75000000
   0.75000000  0.25000000  0.25000000
   0.00000000  0.50000000  0.75000000
   0.50000000  0.25000000  0.50000000
   0.75000000  0.50000000  0.00000000
   0.00000000  0.75000000  0.50000000
   0.25000000  0.00000000  0.00000000
 
 position of ions in cartesian coordinates  (Angst):
   0.00000000  0.00000000  0.00000000
   2.09452875  2.09452875  4.18905750
   4.18905750  4.18905750  0.00000000
   6.28358625  6.28358625  4.18905750
   2.09452875  4.18905750  2.09452875
   4.18905750  6.28358625  6.28358625
   6.28358625  0.00000000  2.09452875
   0.00000000  2.09452875  6.28358625
   4.18905750  0.00000000  4.18905750
   6.28358625  2.09452875  0.00000000
   0.00000000  4.18905750  4.18905750
   2.09452875  6.28358625  0.00000000
   6.28358625  4.18905750  6.28358625
   0.00000000  6.28358625  2.09452875
   2.09452875  0.00000000  6.28358625
   4.18905750  2.09452875  2.09452875
   4.18905750  4.18905750  4.18905750
   6.28358625  6.28358625  0.00000000
   0.00000000  0.00000000  4.18905750
   2.09452875  2.09452875  0.00000000
   6.28358625  0.00000000  6.28358625
   0.00000000  2.09452875  2.09452875
   2.09452875  4.18905750  6.28358625
   4.18905750  6.28358625  2.09452875
   0.00000000  4.18905750  0.00000000
   2.09452875  6.28358625  4.18905750
   4.18905750  0.00000000  0.00000000
   6.28358625  2.09452875  4.18905750
   2.09452875  0.00000000  2.09452875
   4.18905750  2.09452875  6.28358625
   6.28358625  4.18905750  2.09452875
   0.00000000  6.28358625  6.28358625
   2.09452875  2.09452875  2.09452875
   4.18905750  4.18905750  6.28358625
   6.28358625  6.28358625  2.09452875
   0.00000000  0.00000000  6.28358625
   4.18905750  6.28358625  4.18905750
   6.28358625  0.00000000  0.00000000
   0.00000000  2.09452875  4.18905750
   2.09452875  4.18905750  0.00000000
   6.28358625  2.09452875  6.28358625
   0.00000000  4.18905750  2.09452875
   2.09452875  6.28358625  6.28358625
   4.18905750  0.00000000  2.09452875
   0.00000000  6.28358625  0.00000000
   2.09452875  0.00000000  4.18905750
   4.18905750  2.09452875  0.00000000
   6.28358625  4.18905750  4.18905750
   6.28358625  6.28358625  6.28358625
   0.00000000  0.00000000  2.09452875
   2.09452875  2.09452875  6.28358625
   4.18905750  4.18905750  2.09452875
   0.00000000  2.09452875  0.00000000
   2.09452875  4.18905750  4.18905750
   4.18905750  6.28358625  0.00000000
   6.28358625  0.00000000  4.18905750
   2.09452875  6.28358625  2.09452875
   4.18905750  0.00000000  6.28358625
   6.28358625  2.09452875  2.09452875
   0.00000000  4.18905750  6.28358625
   4.18905750  2.09452875  4.18905750
   6.28358625  4.18905750  0.00000000
   0.00000000  6.28358625  4.18905750
   2.09452875  0.00000000  0.00000000
 


--------------------------------------------------------------------------------------------------------


 k-point  1 :   0.0000 0.0000 0.0000  plane waves:   19549
 k-point  2 :   0.3333 0.0000 0.0000  plane waves:   19654
 k-point  3 :   0.3333 0.3333 0.0000  plane waves:   19586
 k-point  4 :  -0.3333 0.3333 0.0000  plane waves:   19586
 k-point  5 :   0.3333 0.3333 0.3333  plane waves:   19603
 k-point  6 :  -0.3333 0.3333 0.3333  plane waves:   19603

 maximum and minimum number of plane-waves per node :     19654    19549

 maximum number of plane-waves:     19654
 maximum index in each direction: 
   IXMAX=   17   IYMAX=   16   IZMAX=   16
   IXMIN=  -17   IYMIN=  -17   IZMIN=  -17


 serial   3D FFT for wavefunctions
 parallel 3D FFT for charge:
    minimum data exchange during FFTs selected (reduces bandwidth)


 total amount of memory used by VASP MPI-rank0  2118346. kBytes
=======================================================================

   base      :      30000. kBytes
   nonlr-proj:      38044. kBytes
   fftplans  :      34720. kBytes
   grid      :      91360. kBytes
   one-center:      10328. kBytes
   wavefun   :    1913894. kBytes
 
     INWAV:  cpu time    0.0001: real time    0.0001
 Broyden mixing: mesh for mixing (old mesh)
   NGX = 33   NGY = 33   NGZ = 33
  (NGX  =100   NGY  =100   NGZ  =100)
  gives a total of  35937 points

 initial charge density was supplied:
 charge density of overlapping atoms calculated
 number of electron     768.0000000 magnetization       0.0000000
 keeping initial charge density in first step


--------------------------------------------------------------------------------------------------------


 Maximum index for non-local projection operator         2176
 Maximum index for augmentation-charges         4553 (set IRDMAX)


--------------------------------------------------------------------------------------------------------


 First call to EWALD:  gamma=   0.212
 Maximum number of real-space cells 3x 3x 3
 Maximum number of reciprocal cells 3x 3x 3

    FEWALD:  cpu time    0.0121: real time    0.0121


----------------------------------------- Iteration    1(   1)  ---------------------------------------


    POTLOK:  cpu time    0.9677: real time    0.9672
    SETDIJ:  cpu time    0.3893: real time    0.3891
     EDDAV:  cpu time   15.7086: real time   15.7367
       DOS:  cpu time    0.0019: real time    0.0019
    --------------------------------------------
      LOOP:  cpu time   17.0698: real time   17.0973

 eigenvalue-minimisations  : 12984
 total energy-change (2. order) : 0.3360625E+05  (-0.2279408E+05)
 number of electron     768.0000000 magnetization       0.0000000
 augmentation part      768.0000000 magnetization       0.0000000

 Free energy of the ion-electron system (eV)
  ---------------------------------------------------
  alpha Z        PSCENC =      5395.69248661
  Ewald energy   TEWEN  =   -103725.60568214
  -Hartree energ DENC   =    -49998.04745549
  -exchange      EXHF   =         0.00000000
  -V(xc)+E(xc)   XCENC  =      5192.96730621
  PAW double counting   =    134449.21163418  -140263.96355224
  entropy T*S    EENTRO =        -0.00000000
  eigenvalues    EBANDS =     20150.37762496
  atomic energy  EATOM  =    162405.62235658
  Solvation  Ediel_sol  =         0.00000000
  ---------------------------------------------------
  free energy    TOTEN  =     33606.25471868 eV

  energy without entropy =    33606.25471868  energy(sigma->0) =    33606.25471868


--------------------------------------------------------------------------------------------------------




----------------------------------------- Iteration    1(   2)  ---------------------------------------


     EDDAV:  cpu time   16.3035: real time   16.3285
       DOS:  cpu time    0.0084: real time    0.0083
    --------------------------------------------
      LOOP:  cpu time   16.3124: real time   16.3374

 eigenvalue-minimisations  : 14008
 total energy-change (2. order) :-0.1988944E+05  (-0.1789811E+05)
 number of electron     768.0000000 magnetization       0.0000000
 augmentation part      768.0000000 magnetization       0.0000000

 Free energy of the ion-electron system (eV)
  ---------------------------------------------------
  alpha Z        PSCENC =      5395.69248661
  Ewald energy   TEWEN  =   -103725.60568214
  -Hartree energ DENC   =    -49998.04745549
  -exchange      EXHF   =         0.00000000
  -V(xc)+E(xc)   XCENC  =      5192.96730621
  PAW double counting   =    134449.21163418  -140263.96355224
  entropy T*S    EENTRO =        -0.00003926
  eigenvalues    EBANDS =       260.93884105
  atomic energy  EATOM  =    162405.62235658
  Solvation  Ediel_sol  =         0.00000000
  ---------------------------------------------------
  free energy    TOTEN  =     13716.81589551 eV

  energy without entropy =    13716.81593477  energy(sigma->0) =    13716.81591514


--------------------------------------------------------------------------------------------------------




----------------------------------------- Iteration    1(   3)  ---------------------------------------


     EDDAV:  cpu time   17.9570: real time   17.9699
       DOS:  cpu time    0.0081: real time    0.0081
    --------------------------------------------
      LOOP:  cpu time   17.9655: real time   17.9784

 eigenvalue-minimisations  : 16256
 total energy-change (2. order) :-0.9288658E+04  (-0.8714202E+04)
 number of electron     768.0000000 magnetization       0.0000000
 augmentation part      768.0000000 magnetization       0.0000000

 Free energy of the ion-electron system (eV)
  ---------------------------------------------------
  alpha Z        PSCENC =      5395.69248661
  Ewald energy   TEWEN  =   -103725.60568214
  -Hartree energ DENC   =    -49998.04745549
  -exchange      EXHF   =         0.00000000
  -V(xc)+E(xc)   XCENC  =      5192.96730621
  PAW double counting   =    134449.21163418  -140263.96355224
  entropy T*S    EENTRO =        -0.00003962
  eigenvalues    EBANDS =     -9027.71877745
  atomic energy  EATOM  =    162405.62235658
  Solvation  Ediel_sol  =         0.00000000
  ---------------------------------------------------
  free energy    TOTEN  =      4428.15827665 eV

  energy without entropy =     4428.15831627  energy(sigma->0) =     4428.15829646


--------------------------------------------------------------------------------------------------------




----------------------------------------- Iteration    1(   4)  ---------------------------------------


     EDDAV:  cpu time   21.5786: real time   21.5978
       DOS:  cpu time    0.0081: real time    0.0081
    --------------------------------------------
      LOOP:  cpu time   21.5872: real time   21.6063

 eigenvalue-minimisations  : 20792
 total energy-change (2. order) :-0.3404105E+04  (-0.3167430E+04)
 number of electron     768.0000000 magnetization       0.0000000
 augmentation part      768.0000000 magnetization       0.0000000

 Free energy of the ion-electron system (eV)
  ---------------------------------------------------
  alpha Z        PSCENC =      5395.69248661
  Ewald energy   TEWEN  =   -103725.60568214
  -Hartree energ DENC   =    -49998.04745549
  -exchange      EXHF   =         0.00000000
  -V(xc)+E(xc)   XCENC  =      5192.96730621
  PAW double counting   =    134449.21163418  -140263.96355224
  entropy T*S    EENTRO =        -0.00003935
  eigenvalues    EBANDS =    -12431.82423541
  atomic energy  EATOM  =    162405.62235658
  Solvation  Ediel_sol  =         0.00000000
  ---------------------------------------------------
  free energy    TOTEN  =      1024.05281895 eV

  energy without entropy =     1024.05285830  energy(sigma->0) =     1024.05283863


--------------------------------------------------------------------------------------------------------




----------------------------------------- Iteration    1(   5)  ---------------------------------------


     EDDAV:  cpu time   22.0862: real time   22.1059
       DOS:  cpu time    0.0093: real time    0.0093
    CHARGE:  cpu time    4.3012: real time    4.3005
    MIXING:  cpu time    0.0226: real time    0.0226
    --------------------------------------------
      LOOP:  cpu time   26.4199: real time   26.4390

 eigenvalue-minimisations  : 21456
 total energy-change (2. order) :-0.1026190E+04  (-0.8933465E+03)
 number of electron     768.0004946 magnetization       0.0000000
 augmentation part      294.4011805 magnetization       0.0000000

 Broyden mixing:
  rms(total) = 0.14913E+02    rms(broyden)= 0.14911E+02
  rms(prec ) = 0.15644E+02
  weight for this iteration     100.00

 Free energy of the ion-electron system (eV)
  ---------------------------------------------------
  alpha Z        PSCENC =      5395.69248661
  Ewald energy   TEWEN  =   -103725.60568214
  -Hartree energ DENC   =    -49998.04745549
  -exchange      EXHF   =         0.00000000
  -V(xc)+E(xc)   XCENC  =      5192.96730621
  PAW double counting   =    134449.21163418  -140263.96355224
  entropy T*S    EENTRO =        -0.00003926
  eigenvalues    EBANDS =    -13458.01400247
  atomic energy  EATOM  =    162405.62235658
  Solvation  Ediel_sol  =         0.00000000
  ---------------------------------------------------
  free energy    TOTEN  =        -2.13694801 eV

  energy without entropy =       -2.13690875  energy(sigma->0) =       -2.13692838


--------------------------------------------------------------------------------------------------------




----------------------------------------- Iteration    1(   6)  ---------------------------------------


    POTLOK:  cpu time    0.9673: real time    0.9669
    SETDIJ:  cpu time    0.3985: real time    0.3984
     EDDAV:  cpu time   22.0616: real time   22.0913
       DOS:  cpu time    0.0080: real time    0.0080
    CHARGE:  cpu time    4.2591: real time    4.2588
    MIXING:  cpu time    0.0246: real time    0.0246
    --------------------------------------------
      LOOP:  cpu time   27.7198: real time   27.7487

 eigenvalue-minimisations  : 21808
 total energy-change (2. order) :-0.2946721E+03  (-0.3363176E+03)
 number of electron     768.0004612 magnetization      -0.0000000
 augmentation part      312.3979327 magnetization      -0.0000000

 Broyden mixing:
  rms(total) = 0.45297E+01    rms(broyden)= 0.45183E+01
  rms(prec ) = 0.53954E+01
  weight for this iteration     100.00

 eigenvalues of (default mixing * dielectric matrix)
  average eigenvalue GAMMA=   0.8269
  0.8269

 Free energy of the ion-electron system (eV)
  ---------------------------------------------------
  alpha Z        PSCENC =      5395.69248661
  Ewald energy   TEWEN  =   -103725.60568214
  -Hartree energ DENC   =    -47835.86472991
  -exchange      EXHF   =         0.00000000
  -V(xc)+E(xc)   XCENC  =      5102.82398311
  PAW double counting   =    140955.42345731  -146744.81091616
  entropy T*S    EENTRO =        -0.00002012
  eigenvalues    EBANDS =    -15850.08993512
  atomic energy  EATOM  =    162405.62235658
  Solvation  Ediel_sol  =         0.00000000
  ---------------------------------------------------
  free energy    TOTEN  =      -296.80899985 eV

  energy without entropy =     -296.80897973  energy(sigma->0) =     -296.80898979


--------------------------------------------------------------------------------------------------------




----------------------------------------- Iteration    1(   7)  ---------------------------------------


    POTLOK:  cpu time    0.9552: real time    0.9548
    SETDIJ:  cpu time    0.3977: real time    0.3976
     EDDAV:  cpu time   21.3408: real time   21.3626
       DOS:  cpu time    0.0011: real time    0.0011
    CHARGE:  cpu time    4.2674: real time    4.2670
    MIXING:  cpu time    0.0281: real time    0.0280
    --------------------------------------------
      LOOP:  cpu time   26.9909: real time   27.0118

 eigenvalue-minimisations  : 20640
 total energy-change (2. order) :-0.8332593E+02  (-0.1025529E+03)
 number of electron     768.0004383 magnetization      -0.0000000
 augmentation part      311.1095519 magnetization      -0.0000000

 Broyden mixing:
  rms(total) = 0.29642E+01    rms(broyden)= 0.29566E+01
  rms(prec ) = 0.36733E+01
  weight for this iteration     100.00

 eigenvalues of (default mixing * dielectric matrix)
  average eigenvalue GAMMA=   1.0415
  1.0415  1.0415

 Free energy of the ion-electron system (eV)
  ---------------------------------------------------
  alpha Z        PSCENC =      5395.69248661
  Ewald energy   TEWEN  =   -103725.60568214
  -Hartree energ DENC   =    -47593.86291108
  -exchange      EXHF   =         0.00000000
  -V(xc)+E(xc)   XCENC  =      5112.00202671
  PAW double counting   =    142465.28204626  -148480.54444482
  entropy T*S    EENTRO =         0.00000000
  eigenvalues    EBANDS =    -15958.72080611
  atomic energy  EATOM  =    162405.62235658
  Solvation  Ediel_sol  =         0.00000000
  ---------------------------------------------------
  free energy    TOTEN  =      -380.13492798 eV

  energy without entropy =     -380.13492798  energy(sigma->0) =     -380.13492798


--------------------------------------------------------------------------------------------------------




----------------------------------------- Iteration    1(   8)  ---------------------------------------


    POTLOK:  cpu time    0.9648: real time    0.9646
    SETDIJ:  cpu time    0.3984: real time    0.3983
     EDDAV:  cpu time   21.9980: real time   22.0441
       DOS:  cpu time    0.0009: real time    0.0009
    CHARGE:  cpu time    4.2788: real time    4.2782
    MIXING:  cpu time    0.0297: real time    0.0297
    --------------------------------------------
      LOOP:  cpu time   27.6712: real time   27.7164

 eigenvalue-minimisations  : 21536
 total energy-change (2. order) :-0.1341173E+02  (-0.2789639E+02)
 number of electron     768.0004473 magnetization      -0.0000000
 augmentation part      312.8812245 magnetization      -0.0000000

 Broyden mixing:
  rms(total) = 0.16107E+01    rms(broyden)= 0.16099E+01
  rms(prec ) = 0.18030E+01
  weight for this iteration     100.00

 eigenvalues of (default mixing * dielectric matrix)
  average eigenvalue GAMMA=   0.9477
  0.8035  1.0198  1.0198

 Free energy of the ion-electron system (eV)
  ---------------------------------------------------
  alpha Z        PSCENC =      5395.69248661
  Ewald energy   TEWEN  =   -103725.60568214
  -Hartree energ DENC   =    -47611.65470407
  -exchange      EXHF   =         0.00000000
  -V(xc)+E(xc)   XCENC  =      5131.66499791
  PAW double counting   =    141452.22475638  -147520.99972383
  entropy T*S    EENTRO =         0.00000000
  eigenvalues    EBANDS =    -15920.49114982
  atomic energy  EATOM  =    162405.62235658
  Solvation  Ediel_sol  =         0.00000000
  ---------------------------------------------------
  free energy    TOTEN  =      -393.54666238 eV

  energy without entropy =     -393.54666238  energy(sigma->0) =     -393.54666238


--------------------------------------------------------------------------------------------------------




----------------------------------------- Iteration    1(   9)  ---------------------------------------


    POTLOK:  cpu time    0.9505: real time    0.9501
    SETDIJ:  cpu time    0.3979: real time    0.3980
     EDDAV:  cpu time   18.2450: real time   18.2677
       DOS:  cpu time    0.0009: real time    0.0009
    CHARGE:  cpu time    4.2653: real time    4.2649
    MIXING:  cpu time    0.0353: real time    0.0353
    --------------------------------------------
      LOOP:  cpu time   23.8956: real time   23.9176

 eigenvalue-minimisations  : 17032
 total energy-change (2. order) :-0.6512361E+01  (-0.7748843E+01)
 number of electron     768.0004366 magnetization       0.0000000
 augmentation part      308.0983892 magnetization       0.0000000

 Broyden mixing:
  rms(total) = 0.98704E+00    rms(broyden)= 0.98681E+00
  rms(prec ) = 0.11667E+01
  weight for this iteration     100.00

 eigenvalues of (default mixing * dielectric matrix)
  average eigenvalue GAMMA=   1.0738
  1.3650  1.3650  1.0250  0.5403

 Free energy of the ion-electron system (eV)
  ---------------------------------------------------
  alpha Z        PSCENC =      5395.69248661
  Ewald energy   TEWEN  =   -103725.60568214
  -Hartree energ DENC   =    -47848.44417412
  -exchange      EXHF   =         0.00000000
  -V(xc)+E(xc)   XCENC  =      5137.13639957
  PAW double counting   =    141636.77666628  -147768.35290591
  entropy T*S    EENTRO =         0.00000000
  eigenvalues    EBANDS =    -15632.88417066
  atomic energy  EATOM  =    162405.62235658
  Solvation  Ediel_sol  =         0.00000000
  ---------------------------------------------------
  free energy    TOTEN  =      -400.05902378 eV

  energy without entropy =     -400.05902378  energy(sigma->0) =     -400.05902378


--------------------------------------------------------------------------------------------------------




----------------------------------------- Iteration    1(  10)  ---------------------------------------


    POTLOK:  cpu time    0.9624: real time    0.9620
    SETDIJ:  cpu time    0.3982: real time    0.3983
     EDDAV:  cpu time   21.5233: real time   21.5396
       DOS:  cpu time    0.0011: real time    0.0011
    CHARGE:  cpu time    4.2460: real time    4.2449
    MIXING:  cpu time    0.0359: real time    0.0359
    --------------------------------------------
      LOOP:  cpu time   27.1675: real time   27.1824

 eigenvalue-minimisations  : 20944
 total energy-change (2. order) :-0.9056118E+00  (-0.1728366E+01)
 number of electron     768.0004413 magnetization      -0.0000000
 augmentation part      309.0500638 magnetization      -0.0000000

 Broyden mixing:
  rms(total) = 0.43439E+00    rms(broyden)= 0.43395E+00
  rms(prec ) = 0.45440E+00
  weight for this iteration     100.00

 eigenvalues of (default mixing * dielectric matrix)
  average eigenvalue GAMMA=   1.0570
  1.5213  1.5213  0.9373  0.7985  0.5063

 Free energy of the ion-electron system (eV)
  ---------------------------------------------------
  alpha Z        PSCENC =      5395.69248661
  Ewald energy   TEWEN  =   -103725.60568214
  -Hartree energ DENC   =    -47808.17919515
  -exchange      EXHF   =         0.00000000
  -V(xc)+E(xc)   XCENC  =      5137.77096311
  PAW double counting   =    141088.07650019  -147180.18013072
  entropy T*S    EENTRO =         0.00000000
  eigenvalues    EBANDS =    -15714.16193408
  atomic energy  EATOM  =    162405.62235658
  Solvation  Ediel_sol  =         0.00000000
  ---------------------------------------------------
  free energy    TOTEN  =      -400.96463560 eV

  energy without entropy =     -400.96463560  energy(sigma->0) =     -400.96463560


--------------------------------------------------------------------------------------------------------




----------------------------------------- Iteration    1(  11)  ---------------------------------------


    POTLOK:  cpu time    0.9547: real time    0.9542
    SETDIJ:  cpu time    0.3979: real time    0.3978
     EDDAV:  cpu time   20.3813: real time   20.3960
       DOS:  cpu time    0.0012: real time    0.0012
    CHARGE:  cpu time    4.3495: real time    4.3492
    MIXING:  cpu time    0.0440: real time    0.0439
    --------------------------------------------
      LOOP:  cpu time   26.1293: real time   26.1430

 eigenvalue-minimisations  : 19568
 total energy-change (2. order) :-0.3312718E+00  (-0.2493466E+00)
 number of electron     768.0004422 magnetization      -0.0000000
 augmentation part      309.1556075 magnetization      -0.0000000

 Broyden mixing:
  rms(total) = 0.23241E+00    rms(broyden)= 0.23231E+00
  rms(prec ) = 0.23956E+00
  weight for this iteration     100.00

 eigenvalues of (default mixing * dielectric matrix)
  average eigenvalue GAMMA=   1.1486
  1.7291  1.7291  1.1342  1.1342  0.6511  0.5138

 Free energy of the ion-electron system (eV)
  ---------------------------------------------------
  alpha Z        PSCENC =      5395.69248661
  Ewald energy   TEWEN  =   -103725.60568214
  -Hartree energ DENC   =    -47814.80376417
  -exchange      EXHF   =         0.00000000
  -V(xc)+E(xc)   XCENC  =      5138.50739465
  PAW double counting   =    140871.08120645  -146949.62307327
  entropy T*S    EENTRO =         0.00000000
  eigenvalues    EBANDS =    -15722.16683213
  atomic energy  EATOM  =    162405.62235658
  Solvation  Ediel_sol  =         0.00000000
  ---------------------------------------------------
  free energy    TOTEN  =      -401.29590743 eV

  energy without entropy =     -401.29590743  energy(sigma->0) =     -401.29590743


--------------------------------------------------------------------------------------------------------




----------------------------------------- Iteration    1(  12)  ---------------------------------------


    POTLOK:  cpu time    0.9651: real time    0.9648
    SETDIJ:  cpu time    0.3985: real time    0.3983
     EDDAV:  cpu time   21.0650: real time   21.0903
       DOS:  cpu time    0.0009: real time    0.0009
    CHARGE:  cpu time    4.3260: real time    4.3255
    MIXING:  cpu time    0.0439: real time    0.0438
    --------------------------------------------
      LOOP:  cpu time   26.8000: real time   26.8243

 eigenvalue-minimisations  : 20456
 total energy-change (2. order) :-0.8017351E-01  (-0.5015219E-01)
 number of electron     768.0004421 magnetization      -0.0000000
 augmentation part      309.1346219 magnetization      -0.0000000

 Broyden mixing:
  rms(total) = 0.93207E-01    rms(broyden)= 0.93167E-01
  rms(prec ) = 0.97938E-01
  weight for this iteration     100.00

 eigenvalues of (default mixing * dielectric matrix)
  average eigenvalue GAMMA=   1.1018
  1.8176  1.8176  1.1254  1.1254  0.6749  0.6203  0.5311

 Free energy of the ion-electron system (eV)
  ---------------------------------------------------
  alpha Z        PSCENC =      5395.69248661
  Ewald energy   TEWEN  =   -103725.60568214
  -Hartree energ DENC   =    -47823.10489904
  -exchange      EXHF   =         0.00000000
  -V(xc)+E(xc)   XCENC  =      5139.60457105
  PAW double counting   =    140728.78253322  -146798.39572601
  entropy T*S    EENTRO =         0.00000000
  eigenvalues    EBANDS =    -15723.97172121
  atomic energy  EATOM  =    162405.62235658
  Solvation  Ediel_sol  =         0.00000000
  ---------------------------------------------------
  free energy    TOTEN  =      -401.37608095 eV

  energy without entropy =     -401.37608095  energy(sigma->0) =     -401.37608095


--------------------------------------------------------------------------------------------------------




----------------------------------------- Iteration    1(  13)  ---------------------------------------


    POTLOK:  cpu time    0.9525: real time    0.9521
    SETDIJ:  cpu time    0.3982: real time    0.3983
     EDDAV:  cpu time   20.8391: real time   20.8639
       DOS:  cpu time    0.0011: real time    0.0011
    CHARGE:  cpu time    4.3541: real time    4.3531
    MIXING:  cpu time    0.0506: real time    0.0506
    --------------------------------------------
      LOOP:  cpu time   26.5962: real time   26.6195

 eigenvalue-minimisations  : 19968
 total energy-change (2. order) :-0.7997451E-02  (-0.7347654E-02)
 number of electron     768.0004420 magnetization      -0.0000000
 augmentation part      309.1146198 magnetization      -0.0000000

 Broyden mixing:
  rms(total) = 0.56499E-01    rms(broyden)= 0.56483E-01
  rms(prec ) = 0.58309E-01
  weight for this iteration     100.00

 eigenvalues of (default mixing * dielectric matrix)
  average eigenvalue GAMMA=   1.1048
  1.9052  1.9052  1.1272  1.1272  0.8346  0.8346  0.5044  0.6003

 Free energy of the ion-electron system (eV)
  ---------------------------------------------------
  alpha Z        PSCENC =      5395.69248661
  Ewald energy   TEWEN  =   -103725.60568214
  -Hartree energ DENC   =    -47822.57714022
  -exchange      EXHF   =         0.00000000
  -V(xc)+E(xc)   XCENC  =      5139.40788001
  PAW double counting   =    140742.44187895  -146810.72007280
  entropy T*S    EENTRO =         0.00000000
  eigenvalues    EBANDS =    -15725.64578538
  atomic energy  EATOM  =    162405.62235658
  Solvation  Ediel_sol  =         0.00000000
  ---------------------------------------------------
  free energy    TOTEN  =      -401.38407840 eV

  energy without entropy =     -401.38407840  energy(sigma->0) =     -401.38407840


--------------------------------------------------------------------------------------------------------




----------------------------------------- Iteration    1(  14)  ---------------------------------------


    POTLOK:  cpu time    0.9613: real time    0.9610
    SETDIJ:  cpu time    0.3986: real time    0.3984
     EDDAV:  cpu time   21.9747: real time   21.9881
       DOS:  cpu time    0.0011: real time    0.0011
    CHARGE:  cpu time    4.3297: real time    4.3286
    MIXING:  cpu time    0.0601: real time    0.0600
    --------------------------------------------
      LOOP:  cpu time   27.7261: real time   27.7378

 eigenvalue-minimisations  : 21616
 total energy-change (2. order) :-0.1947203E-02  (-0.1693481E-02)
 number of electron     768.0004421 magnetization       0.0000000
 augmentation part      309.1265088 magnetization       0.0000000

 Broyden mixing:
  rms(total) = 0.34004E-01    rms(broyden)= 0.33997E-01
  rms(prec ) = 0.34687E-01
  weight for this iteration     100.00

 eigenvalues of (default mixing * dielectric matrix)
  average eigenvalue GAMMA=   1.2161
  2.2577  1.9847  1.3073  1.3073  1.1316  1.1316  0.7063  0.5054  0.6132

 Free energy of the ion-electron system (eV)
  ---------------------------------------------------
  alpha Z        PSCENC =      5395.69248661
  Ewald energy   TEWEN  =   -103725.60568214
  -Hartree energ DENC   =    -47821.60855417
  -exchange      EXHF   =         0.00000000
  -V(xc)+E(xc)   XCENC  =      5139.41784422
  PAW double counting   =    140749.12385298  -146817.17579868
  entropy T*S    EENTRO =         0.00000000
  eigenvalues    EBANDS =    -15726.85253099
  atomic energy  EATOM  =    162405.62235658
  Solvation  Ediel_sol  =         0.00000000
  ---------------------------------------------------
  free energy    TOTEN  =      -401.38602560 eV

  energy without entropy =     -401.38602560  energy(sigma->0) =     -401.38602560


--------------------------------------------------------------------------------------------------------




----------------------------------------- Iteration    1(  15)  ---------------------------------------


    POTLOK:  cpu time    0.9555: real time    0.9552
    SETDIJ:  cpu time    0.3988: real time    0.3987
     EDDAV:  cpu time   20.2947: real time   20.3161
       DOS:  cpu time    0.0011: real time    0.0011
    CHARGE:  cpu time    4.3613: real time    4.3601
    MIXING:  cpu time    0.0568: real time    0.0568
    --------------------------------------------
      LOOP:  cpu time   26.0689: real time   26.0885

 eigenvalue-minimisations  : 19176
 total energy-change (2. order) :-0.1134781E-02  (-0.4629999E-03)
 number of electron     768.0004421 magnetization       0.0000000
 augmentation part      309.1248642 magnetization       0.0000000

 Broyden mixing:
  rms(total) = 0.16602E-01    rms(broyden)= 0.16596E-01
  rms(prec ) = 0.19401E-01
  weight for this iteration     100.00

 eigenvalues of (default mixing * dielectric matrix)
  average eigenvalue GAMMA=   1.2090
  2.5079  2.0138  1.6257  1.1696  1.1696  1.0519  0.5083  0.7070  0.7070  0.6287

 Free energy of the ion-electron system (eV)
  ---------------------------------------------------
  alpha Z        PSCENC =      5395.69248661
  Ewald energy   TEWEN  =   -103725.60568214
  -Hartree energ DENC   =    -47821.91330838
  -exchange      EXHF   =         0.00000000
  -V(xc)+E(xc)   XCENC  =      5139.47812424
  PAW double counting   =    140771.01450598  -146839.11377749
  entropy T*S    EENTRO =         0.00000000
  eigenvalues    EBANDS =    -15726.56186578
  atomic energy  EATOM  =    162405.62235658
  Solvation  Ediel_sol  =         0.00000000
  ---------------------------------------------------
  free energy    TOTEN  =      -401.38716038 eV

  energy without entropy =     -401.38716038  energy(sigma->0) =     -401.38716038


--------------------------------------------------------------------------------------------------------




----------------------------------------- Iteration    1(  16)  ---------------------------------------


    POTLOK:  cpu time    0.9548: real time    0.9543
    SETDIJ:  cpu time    0.4006: real time    0.4005
     EDDAV:  cpu time   21.4849: real time   21.5132
       DOS:  cpu time    0.0009: real time    0.0009
    CHARGE:  cpu time    4.3382: real time    4.3378
    MIXING:  cpu time    0.0694: real time    0.0693
    --------------------------------------------
      LOOP:  cpu time   27.2496: real time   27.2766

 eigenvalue-minimisations  : 20904
 total energy-change (2. order) :-0.3916849E-04  (-0.1121228E-03)
 number of electron     768.0004421 magnetization      -0.0000000
 augmentation part      309.1159315 magnetization      -0.0000000

 Broyden mixing:
  rms(total) = 0.64177E-02    rms(broyden)= 0.64148E-02
  rms(prec ) = 0.79716E-02
  weight for this iteration     100.00

 eigenvalues of (default mixing * dielectric matrix)
  average eigenvalue GAMMA=   1.2126
  2.7281  2.2596  1.5036  1.2031  1.2031  0.9598  0.9598  0.5067  0.7087  0.7087
  0.5978

 Free energy of the ion-electron system (eV)
  ---------------------------------------------------
  alpha Z        PSCENC =      5395.69248661
  Ewald energy   TEWEN  =   -103725.60568214
  -Hartree energ DENC   =    -47821.79954037
  -exchange      EXHF   =         0.00000000
  -V(xc)+E(xc)   XCENC  =      5139.43602845
  PAW double counting   =    140781.78287411  -146849.82946225
  entropy T*S    EENTRO =         0.00000000
  eigenvalues    EBANDS =    -15726.68626054
  atomic energy  EATOM  =    162405.62235658
  Solvation  Ediel_sol  =         0.00000000
  ---------------------------------------------------
  free energy    TOTEN  =      -401.38719955 eV

  energy without entropy =     -401.38719955  energy(sigma->0) =     -401.38719955


--------------------------------------------------------------------------------------------------------




----------------------------------------- Iteration    1(  17)  ---------------------------------------


    POTLOK:  cpu time    0.9601: real time    0.9597
    SETDIJ:  cpu time    0.4013: real time    0.4011
     EDDAV:  cpu time   20.1319: real time   20.1659
       DOS:  cpu time    0.0009: real time    0.0009
    CHARGE:  cpu time    4.3487: real time    4.3482
    MIXING:  cpu time    0.0667: real time    0.0667
    --------------------------------------------
      LOOP:  cpu time   25.9103: real time   25.9431

 eigenvalue-minimisations  : 18840
 total energy-change (2. order) :-0.5053327E-05  (-0.4032022E-04)
 number of electron     768.0004420 magnetization      -0.0000000
 augmentation part      309.1128349 magnetization      -0.0000000

 Broyden mixing:
  rms(total) = 0.13282E-02    rms(broyden)= 0.13184E-02
  rms(prec ) = 0.14834E-02
  weight for this iteration     100.00

 eigenvalues of (default mixing * dielectric matrix)
  average eigenvalue GAMMA=   1.1662
  2.6157  2.2459  1.5518  1.1959  1.1959  1.0580  0.8728  0.8728  0.5069  0.6573
  0.6573  0.5638

 Free energy of the ion-electron system (eV)
  ---------------------------------------------------
  alpha Z        PSCENC =      5395.69248661
  Ewald energy   TEWEN  =   -103725.60568214
  -Hartree energ DENC   =    -47821.79172175
  -exchange      EXHF   =         0.00000000
  -V(xc)+E(xc)   XCENC  =      5139.41443162
  PAW double counting   =    140787.25552703  -146855.14317966
  entropy T*S    EENTRO =         0.00000000
  eigenvalues    EBANDS =    -15726.83142288
  atomic energy  EATOM  =    162405.62235658
  Solvation  Ediel_sol  =         0.00000000
  ---------------------------------------------------
  free energy    TOTEN  =      -401.38720460 eV

  energy without entropy =     -401.38720460  energy(sigma->0) =     -401.38720460


--------------------------------------------------------------------------------------------------------




----------------------------------------- Iteration    1(  18)  ---------------------------------------


    POTLOK:  cpu time    0.9511: real time    0.9507
    SETDIJ:  cpu time    0.4007: real time    0.4005
     EDDAV:  cpu time   18.6671: real time   18.6805
       DOS:  cpu time    0.0011: real time    0.0011
    CHARGE:  cpu time    4.3407: real time    4.3401
    MIXING:  cpu time    0.0835: real time    0.0835
    --------------------------------------------
      LOOP:  cpu time   24.4448: real time   24.4570

 eigenvalue-minimisations  : 17176
 total energy-change (2. order) :-0.1408416E-04  (-0.1502537E-04)
 number of electron     768.0004420 magnetization      -0.0000000
 augmentation part      309.1151035 magnetization      -0.0000000

 Broyden mixing:
  rms(total) = 0.10636E-02    rms(broyden)= 0.10620E-02
  rms(prec ) = 0.12839E-02
  weight for this iteration     100.00

 eigenvalues of (default mixing * dielectric matrix)
  average eigenvalue GAMMA=   1.1400
  2.5827  2.2656  1.6139  1.1947  1.1947  1.0722  0.9533  0.8426  0.6912  0.6912
  0.5061  0.6060  0.6060

 Free energy of the ion-electron system (eV)
  ---------------------------------------------------
  alpha Z        PSCENC =      5395.69248661
  Ewald energy   TEWEN  =   -103725.60568214
  -Hartree energ DENC   =    -47821.88088318
  -exchange      EXHF   =         0.00000000
  -V(xc)+E(xc)   XCENC  =      5139.42046714
  PAW double counting   =    140786.32469390  -146854.16526927
  entropy T*S    EENTRO =         0.00000000
  eigenvalues    EBANDS =    -15726.79538833
  atomic energy  EATOM  =    162405.62235658
  Solvation  Ediel_sol  =         0.00000000
  ---------------------------------------------------
  free energy    TOTEN  =      -401.38721869 eV

  energy without entropy =     -401.38721869  energy(sigma->0) =     -401.38721869


--------------------------------------------------------------------------------------------------------




----------------------------------------- Iteration    1(  19)  ---------------------------------------


    POTLOK:  cpu time    0.9604: real time    0.9600
    SETDIJ:  cpu time    0.4015: real time    0.4015
     EDDAV:  cpu time   15.5599: real time   15.5862
       DOS:  cpu time    0.0010: real time    0.0010
    CHARGE:  cpu time    4.3285: real time    4.3283
    MIXING:  cpu time    0.0795: real time    0.0795
    --------------------------------------------
      LOOP:  cpu time   21.3314: real time   21.3571

 eigenvalue-minimisations  : 13152
 total energy-change (2. order) :-0.2727262E-05  (-0.3214372E-05)
 number of electron     768.0004420 magnetization       0.0000000
 augmentation part      309.1134719 magnetization       0.0000000

 Broyden mixing:
  rms(total) = 0.67301E-03    rms(broyden)= 0.67267E-03
  rms(prec ) = 0.78123E-03
  weight for this iteration     100.00

 eigenvalues of (default mixing * dielectric matrix)
  average eigenvalue GAMMA=   1.2706
  3.0195  2.3479  2.3479  1.3793  1.3793  1.1787  1.1787  0.9091  0.9091  0.7148
  0.7148  0.5063  0.6017  0.6017

 Free energy of the ion-electron system (eV)
  ---------------------------------------------------
  alpha Z        PSCENC =      5395.69248661
  Ewald energy   TEWEN  =   -103725.60568214
  -Hartree energ DENC   =    -47822.07205688
  -exchange      EXHF   =         0.00000000
  -V(xc)+E(xc)   XCENC  =      5139.42661853
  PAW double counting   =    140786.82585388  -146854.63842652
  entropy T*S    EENTRO =         0.00000000
  eigenvalues    EBANDS =    -15726.63837147
  atomic energy  EATOM  =    162405.62235658
  Solvation  Ediel_sol  =         0.00000000
  ---------------------------------------------------
  free energy    TOTEN  =      -401.38722142 eV

  energy without entropy =     -401.38722142  energy(sigma->0) =     -401.38722142


--------------------------------------------------------------------------------------------------------




----------------------------------------- Iteration    1(  20)  ---------------------------------------


    POTLOK:  cpu time    0.9512: real time    0.9508
    SETDIJ:  cpu time    0.4001: real time    0.3999
     EDDAV:  cpu time   15.2992: real time   15.3228
       DOS:  cpu time    0.0009: real time    0.0009
    CHARGE:  cpu time    4.3533: real time    4.3528
    MIXING:  cpu time    0.0841: real time    0.0840
    --------------------------------------------
      LOOP:  cpu time   21.0894: real time   21.1118

 eigenvalue-minimisations  : 12576
 total energy-change (2. order) :-0.4019210E-05  (-0.1456609E-05)
 number of electron     768.0004420 magnetization       0.0000000
 augmentation part      309.1116001 magnetization       0.0000000

 Broyden mixing:
  rms(total) = 0.46293E-03    rms(broyden)= 0.46258E-03
  rms(prec ) = 0.50869E-03
  weight for this iteration     100.00

 eigenvalues of (default mixing * dielectric matrix)
  average eigenvalue GAMMA=   1.2167
  2.8071  2.3583  2.3583  1.4206  1.4206  1.1663  1.1663  0.8976  0.8976  0.7324
  0.7324  0.5063  0.5964  0.5949  0.5949

 Free energy of the ion-electron system (eV)
  ---------------------------------------------------
  alpha Z        PSCENC =      5395.69248661
  Ewald energy   TEWEN  =   -103725.60568214
  -Hartree energ DENC   =    -47822.39202596
  -exchange      EXHF   =         0.00000000
  -V(xc)+E(xc)   XCENC  =      5139.44278679
  PAW double counting   =    140786.96152881  -146854.71743679
  entropy T*S    EENTRO =         0.00000000
  eigenvalues    EBANDS =    -15726.39123933
  atomic energy  EATOM  =    162405.62235658
  Solvation  Ediel_sol  =         0.00000000
  ---------------------------------------------------
  free energy    TOTEN  =      -401.38722543 eV

  energy without entropy =     -401.38722543  energy(sigma->0) =     -401.38722543


--------------------------------------------------------------------------------------------------------




----------------------------------------- Iteration    1(  21)  ---------------------------------------


    POTLOK:  cpu time    0.9555: real time    0.9554
    SETDIJ:  cpu time    0.4002: real time    0.4001
     EDDAV:  cpu time   11.7595: real time   11.8085
       DOS:  cpu time    0.0009: real time    0.0009
    --------------------------------------------
      LOOP:  cpu time   13.1167: real time   13.1654

 eigenvalue-minimisations  :  8272
 total energy-change (2. order) :-0.2630986E-07  (-0.4333013E-06)
 number of electron     768.0004420 magnetization       0.0000000
 augmentation part      309.1116001 magnetization       0.0000000

 Free energy of the ion-electron system (eV)
  ---------------------------------------------------
  alpha Z        PSCENC =      5395.69248661
  Ewald energy   TEWEN  =   -103725.60568214
  -Hartree energ DENC   =    -47822.29615488
  -exchange      EXHF   =         0.00000000
  -V(xc)+E(xc)   XCENC  =      5139.43800865
  PAW double counting   =    140786.82178067  -146854.58135020
  entropy T*S    EENTRO =         0.00000000
  eigenvalues    EBANDS =    -15726.47867075
  atomic energy  EATOM  =    162405.62235658
  Solvation  Ediel_sol  =         0.00000000
  ---------------------------------------------------
  free energy    TOTEN  =      -401.38722546 eV

  energy without entropy =     -401.38722546  energy(sigma->0) =     -401.38722546


--------------------------------------------------------------------------------------------------------




 average (electrostatic) potential at core
  the test charge radii are     0.8614  0.6768
  (the norm of the test charge is              1.0000)
       1 -79.9010       2 -79.9010       3 -79.9010       4 -79.9010       5 -79.9010
       6 -79.9010       7 -79.9010       8 -79.9010       9 -79.9010      10 -79.9010
      11 -79.9010      12 -79.9010      13 -79.9010      14 -79.9010      15 -79.9010
      16 -79.9010      17 -79.9010      18 -79.9010      19 -79.9010      20 -79.9010
      21 -79.9010      22 -79.9010      23 -79.9010      24 -79.9010      25 -79.9010
      26 -79.9010      27 -79.9010      28 -79.9010      29 -79.9010      30 -79.9010
      31 -79.9010      32 -79.9010      33-113.9423      34-113.9423      35-113.9423
      36-113.9423      37-113.9423      38-113.9423      39-113.9423      40-113.9423
      41-113.9423      42-113.9423      43-113.9423      44-113.9423      45-113.9423
      46-113.9423      47-113.9423      48-113.9423      49-113.9423      50-113.9423
      51-113.9423      52-113.9423      53-113.9423      54-113.9423      55-113.9423
      56-113.9423      57-113.9423      58-113.9423      59-113.9423      60-113.9423
      61-113.9423      62-113.9423      63-113.9423      64-113.9423
 
 
 
 E-fermi :   7.1525     XC(G=0): -12.9988     alpha+bet :-12.5760


 spin component 1

 k-point     1 :       0.0000    0.0000    0.0000
  band No.  band energies     occupation 
      1     -96.6762      1.00000
      2     -96.6752      1.00000
      3     -96.6752      1.00000
      4     -96.6752      1.00000
      5     -96.6752      1.00000
      6     -96.6752      1.00000
      7     -96.6752      1.00000
      8     -96.6748      1.00000
      9     -96.6748      1.00000
     10     -96.6748      1.00000
     11     -96.6748      1.00000
     12     -96.6748      1.00000
     13     -96.6748      1.00000
     14     -96.6747      1.00000
     15     -96.6747      1.00000
     16     -96.6747      1.00000
     17     -95.0135      1.00000
     18     -95.0124      1.00000
     19     -95.0124      1.00000
     20     -95.0124      1.00000
     21     -95.0124      1.00000
     22     -95.0124      1.00000
     23     -95.0124      1.00000
     24     -95.0120      1.00000
     25     -95.0120      1.00000
     26     -95.0120      1.00000
     27     -95.0120      1.00000
     28     -95.0120      1.00000
     29     -95.0120      1.00000
     30     -95.0120      1.00000
     31     -95.0120      1.00000
     32     -95.0119      1.00000
     33     -57.0905      1.00000
     34     -57.0885      1.00000
     35     -57.0885      1.00000
     36     -57.0885      1.00000
     37     -57.0885      1.00000
     38     -57.0885      1.00000
     39     -57.0885      1.00000
     40     -57.0873      1.00000
     41     -57.0873      1.00000
     42     -57.0873      1.00000
     43     -57.0872      1.00000
     44     -57.0872      1.00000
     45     -57.0872      1.00000
     46     -57.0872      1.00000
[...]
   0.180E-12 0.110E-10 -.139E-10   -.144E-12 0.302E-13 -.117E-13   0.286E-21 0.860E-22 -.238E-21   -.740E-12 0.747E-13 -.105E-11
   0.178E-11 -.360E-10 0.135E-10   -.105E-12 0.284E-13 -.917E-13   -.228E-21 0.397E-22 -.132E-22   0.126E-11 -.502E-12 0.200E-11
   0.678E-12 0.385E-12 0.282E-12   -.107E-12 -.114E-12 0.451E-13   -.185E-21 -.132E-22 -.463E-22   0.519E-12 0.134E-12 -.641E-12
   0.101E-11 0.721E-11 -.228E-11   -.353E-13 -.114E-12 -.349E-13   -.156E-21 0.000E+00 -.463E-22   0.791E-13 0.801E-12 0.168E-11
   0.184E-11 0.313E-12 -.542E-10   0.111E-13 -.923E-13 -.142E-13   -.212E-21 -.194E-21 0.258E-21   0.128E-11 0.119E-12 0.805E-13
   0.733E-12 0.875E-12 0.863E-12   -.711E-14 -.355E-13 -.149E-12   0.162E-21 0.225E-21 -.794E-22   0.587E-12 0.833E-12 -.825E-12
   0.117E-11 -.898E-11 0.942E-11   0.497E-13 -.118E-12 -.185E-12   -.165E-22 0.103E-21 0.212E-21   0.188E-12 0.170E-13 -.318E-12
   0.102E-12 -.747E-11 0.119E-10   0.711E-13 0.711E-14 -.149E-12   0.199E-21 0.324E-21 -.195E-21   -.776E-12 -.357E-12 -.109E-11
   0.719E-12 0.152E-12 0.865E-12   0.185E-12 -.182E-12 -.113E-12   -.110E-21 -.662E-23 0.271E-21   0.552E-12 -.324E-13 0.207E-11
   0.976E-12 0.363E-12 -.114E-10   0.171E-12 -.639E-13 -.225E-12   0.212E-21 -.397E-22 0.331E-22   0.327E-12 -.501E-12 -.125E-11
   0.151E-13 0.339E-12 -.599E-10   0.114E-12 -.108E-12 -.170E-12   0.728E-22 -.662E-22 0.112E-21   -.652E-12 -.664E-14 0.183E-11
   0.163E-11 0.996E-12 -.190E-10   0.129E-12 -.977E-13 -.253E-12   0.265E-21 0.172E-21 -.251E-21   0.122E-11 0.420E-12 -.673E-12
   0.975E-12 0.482E-12 0.161E-10   0.298E-12 -.853E-13 -.227E-12   -.844E-22 -.265E-22 0.265E-21   0.321E-12 0.108E-12 -.129E-11
   -.632E-13 0.148E-11 0.260E-11   0.291E-12 -.853E-13 -.341E-12   0.212E-21 -.463E-22 0.331E-22   -.584E-12 0.639E-12 -.318E-12
   0.167E-11 -.932E-11 -.813E-11   0.352E-12 -.223E-12 -.284E-12   0.707E-22 0.248E-22 -.546E-22   0.129E-11 0.752E-13 -.914E-12
   0.589E-12 0.176E-11 0.130E-11   0.355E-12 -.107E-12 -.256E-12   -.331E-23 -.728E-22 -.165E-21   0.440E-12 -.455E-12 0.129E-12
   0.820E-13 -.177E-11 0.944E-12   -.764E-13 0.142E-13 0.853E-13   0.331E-22 -.455E-22 0.879E-22   -.237E-12 0.126E-12 -.270E-12
   0.143E-12 0.569E-11 0.487E-11   -.764E-13 0.252E-13 -.506E-13   -.662E-22 0.132E-22 0.893E-22   -.463E-12 0.666E-13 0.247E-12
   0.489E-12 -.805E-11 0.117E-10   -.195E-13 0.666E-13 0.293E-13   -.119E-21 0.131E-21 0.331E-22   0.310E-12 -.207E-12 -.369E-12
   0.341E-12 0.269E-12 0.345E-12   -.639E-13 -.568E-13 -.497E-13   -.562E-22 -.496E-23 -.860E-22   0.237E-13 0.546E-13 0.226E-12
   0.881E-13 0.552E-11 0.425E-11   -.400E-13 0.533E-14 0.746E-13   0.993E-23 0.430E-22 -.811E-22   -.375E-12 -.211E-12 -.369E-12
   0.501E-12 0.256E-12 0.224E-11   -.383E-13 0.151E-13 -.637E-13   -.331E-22 -.546E-22 0.265E-22   0.363E-12 0.130E-13 0.726E-12
   0.200E-12 0.234E-14 0.255E-12   -.338E-13 -.711E-13 0.160E-13   0.463E-22 -.794E-22 0.265E-22   0.229E-12 0.187E-12 -.291E-12
   0.909E-13 0.936E-12 -.104E-10   -.266E-13 -.584E-13 -.628E-13   0.364E-22 -.860E-22 0.232E-22   -.259E-12 -.267E-13 0.783E-12
   0.412E-12 0.160E-10 -.835E-11   -.663E-14 0.115E-13 0.870E-13   0.132E-22 -.964E-22 0.728E-22   0.442E-12 0.943E-13 0.258E-12
   0.257E-12 0.209E-12 0.146E-12   -.444E-14 0.299E-13 -.862E-13   0.529E-22 0.877E-22 0.116E-21   0.139E-12 -.279E-13 -.382E-12
   0.583E-13 -.681E-12 0.219E-11   0.569E-13 -.568E-13 0.284E-13   -.794E-22 0.463E-22 -.112E-21   -.201E-12 -.332E-12 0.298E-12
   0.832E-13 0.308E-12 0.191E-10   0.711E-13 -.453E-13 -.171E-12   -.827E-23 0.397E-22 -.397E-22   -.458E-12 -.190E-13 -.375E-12
   0.240E-12 0.343E-12 0.449E-12   0.213E-13 0.355E-13 0.763E-13   -.993E-22 -.529E-22 -.993E-22   0.117E-12 -.235E-12 0.803E-12
   0.706E-13 0.282E-12 -.934E-11   0.782E-13 0.356E-13 -.945E-13   -.662E-23 -.265E-22 -.157E-22   -.267E-12 0.112E-12 -.421E-12
   0.448E-13 0.181E-10 -.119E-10   0.853E-13 0.711E-13 0.133E-13   0.463E-22 0.794E-22 0.146E-21   -.412E-12 0.166E-12 0.847E-12
   0.402E-12 0.505E-11 -.101E-11   0.427E-13 0.785E-13 -.186E-12   0.000E+00 0.744E-22 0.608E-22   0.374E-12 0.303E-13 -.341E-12
   0.465E-12 0.153E-11 -.455E-11   0.140E-12 0.142E-13 0.266E-14   0.496E-23 -.496E-22 0.146E-21   0.348E-12 -.135E-12 0.228E-12
   0.245E-12 0.244E-12 0.159E-12   0.128E-12 0.142E-13 0.711E-13   -.993E-22 0.103E-21 0.397E-22   0.208E-12 0.168E-13 -.331E-12
   0.105E-12 0.384E-11 0.234E-11   0.710E-13 0.568E-13 -.568E-13   -.662E-23 -.662E-23 -.993E-23   -.323E-12 0.291E-12 0.214E-12
   0.692E-13 0.491E-11 0.828E-11   0.933E-13 0.441E-13 0.782E-13   -.728E-22 0.265E-22 0.298E-22   -.412E-12 0.526E-13 -.354E-12
   0.280E-12 0.189E-13 0.454E-12   0.206E-12 0.355E-13 -.142E-13   -.662E-22 0.106E-21 -.132E-22   0.160E-12 0.239E-12 0.772E-12
   0.106E-12 0.104E-11 0.527E-12   0.199E-12 0.502E-13 0.646E-13   -.579E-23 0.438E-22 -.993E-23   -.230E-12 -.103E-12 -.266E-12
   0.567E-13 0.260E-11 -.119E-10   0.149E-12 0.853E-13 -.728E-13   -.993E-23 -.596E-22 0.164E-21   -.404E-12 -.208E-12 0.837E-12
   0.448E-12 0.302E-12 -.152E-11   0.185E-12 0.711E-13 0.654E-13   -.629E-22 0.662E-23 -.596E-22   0.387E-12 -.570E-15 -.286E-12
   0.349E-13 0.423E-11 0.255E-11   0.192E-12 -.711E-14 -.355E-13   0.364E-22 -.265E-22 -.695E-22   -.169E-12 -.160E-12 -.362E-12
   -.132E-13 0.335E-12 0.309E-11   0.199E-12 0.360E-14 0.178E-12   -.364E-22 -.129E-21 -.893E-22   -.273E-12 -.352E-13 0.226E-12
   0.436E-12 0.485E-11 -.117E-11   0.245E-12 0.391E-13 -.941E-13   0.199E-22 0.126E-21 -.111E-21   0.358E-12 0.164E-12 -.362E-12
   0.184E-12 -.784E-13 -.207E-12   0.275E-12 0.261E-13 0.790E-13   -.902E-22 -.463E-22 -.496E-23   0.194E-12 -.658E-13 0.274E-12
   0.126E-12 0.736E-11 0.829E-11   0.258E-12 0.213E-13 -.381E-13   0.662E-23 -.199E-22 -.662E-23   -.475E-12 0.169E-12 -.385E-12
   0.416E-12 -.910E-12 0.129E-10   0.248E-12 0.287E-13 0.156E-12   -.529E-22 0.232E-22 -.596E-22   0.405E-12 0.480E-14 0.817E-12
   0.209E-12 -.213E-12 -.558E-13   0.181E-12 0.568E-13 -.991E-13   0.579E-22 -.629E-22 -.112E-21   0.777E-13 -.177E-12 -.333E-12
   0.173E-13 0.291E-12 -.404E-12   0.192E-12 0.507E-13 0.639E-13   0.265E-22 0.926E-22 -.463E-22   -.243E-12 0.258E-13 0.963E-12
 -----------------------------------------------------------------------------------------------
   0.342E-10 0.106E-09 -.601E-10   0.306E-12 0.572E-14 0.125E-13   0.380E-21 0.203E-20 -.256E-21   0.990E-11 0.319E-11 0.210E-11
 
 
 POSITION                                       TOTAL-FORCE (eV/Angst)
 -----------------------------------------------------------------------------------
      0.00000      0.00000      0.00000        -0.000000      0.000000      0.000000
      2.09453      2.09453      4.18906         0.000000     -0.000000     -0.000000
      4.18906      4.18906      0.00000         0.000000     -0.000000      0.000000
      6.28359      6.28359      4.18906         0.000000     -0.000000     -0.000000
      2.09453      4.18906      2.09453        -0.000000      0.000000      0.000000
      4.18906      6.28359      6.28359         0.000000      0.000000      0.000000
      6.28359      0.00000      2.09453        -0.000000      0.000000      0.000000
      0.00000      2.09453      6.28359         0.000000      0.000000      0.000000
      4.18906      0.00000      4.18906        -0.000000     -0.000000      0.000000
      6.28359      2.09453      0.00000         0.000000     -0.000000      0.000000
      0.00000      4.18906      4.18906         0.000000      0.000000     -0.000000
      2.09453      6.28359      0.00000         0.000000     -0.000000     -0.000000
      6.28359      4.18906      6.28359         0.000000      0.000000      0.000000
      0.00000      6.28359      2.09453         0.000000     -0.000000     -0.000000
      2.09453      0.00000      6.28359        -0.000000      0.000000      0.000000
      4.18906      2.09453      2.09453         0.000000     -0.000000     -0.000000
      4.18906      4.18906      4.18906         0.000000     -0.000000      0.000000
      6.28359      6.28359      0.00000         0.000000      0.000000     -0.000000
      0.00000      0.00000      4.18906         0.000000      0.000000     -0.000000
      2.09453      2.09453      0.00000        -0.000000     -0.000000     -0.000000
      6.28359      0.00000      6.28359         0.000000      0.000000      0.000000
      0.00000      2.09453      2.09453        -0.000000     -0.000000      0.000000
      2.09453      4.18906      6.28359         0.000000      0.000000      0.000000
      4.18906      6.28359      2.09453        -0.000000      0.000000     -0.000000
      0.00000      4.18906      0.00000         0.000000     -0.000000      0.000000
      2.09453      6.28359      4.18906         0.000000      0.000000      0.000000
      4.18906      0.00000      0.00000         0.000000     -0.000000      0.000000
      6.28359      2.09453      4.18906        -0.000000     -0.000000      0.000000
      2.09453      0.00000      2.09453        -0.000000      0.000000     -0.000000
      4.18906      2.09453      6.28359        -0.000000      0.000000      0.000000
      6.28359      4.18906      2.09453         0.000000      0.000000     -0.000000
      0.00000      6.28359      6.28359        -0.000000     -0.000000      0.000000
      2.09453      2.09453      2.09453        -0.000000      0.000000     -0.000000
      4.18906      4.18906      6.28359         0.000000      0.000000     -0.000000
      6.28359      6.28359      2.09453        -0.000000      0.000000      0.000000
      0.00000      0.00000      6.28359         0.000000     -0.000000     -0.000000
      4.18906      6.28359      4.18906        -0.000000      0.000000     -0.000000
      6.28359      0.00000      0.00000        -0.000000     -0.000000      0.000000
      0.00000      2.09453      4.18906         0.000000     -0.000000      0.000000
      2.09453      4.18906      0.00000         0.000000      0.000000     -0.000000
      6.28359      2.09453      6.28359         0.000000     -0.000000     -0.000000
      0.00000      4.18906      2.09453        -0.000000     -0.000000     -0.000000
      2.09453      6.28359      6.28359         0.000000      0.000000     -0.000000
      4.18906      0.00000      2.09453        -0.000000     -0.000000     -0.000000
      0.00000      6.28359      0.00000         0.000000      0.000000      0.000000
      2.09453      0.00000      4.18906         0.000000      0.000000     -0.000000
      4.18906      2.09453      0.00000        -0.000000     -0.000000      0.000000
      6.28359      4.18906      4.18906        -0.000000     -0.000000     -0.000000
      6.28359      6.28359      6.28359         0.000000      0.000000      0.000000
      0.00000      0.00000      2.09453        -0.000000      0.000000      0.000000
      2.09453      2.09453      6.28359        -0.000000      0.000000     -0.000000
      4.18906      4.18906      2.09453        -0.000000      0.000000     -0.000000
      0.00000      2.09453      0.00000        -0.000000     -0.000000     -0.000000
      2.09453      4.18906      4.18906        -0.000000     -0.000000     -0.000000
      4.18906      6.28359      0.00000         0.000000      0.000000      0.000000
      6.28359      0.00000      4.18906         0.000000     -0.000000     -0.000000
      2.09453      6.28359      2.09453        -0.000000     -0.000000     -0.000000
      4.18906      0.00000      6.28359         0.000000     -0.000000     -0.000000
      6.28359      2.09453      2.09453        -0.000000     -0.000000      0.000000
      0.00000      4.18906      6.28359         0.000000     -0.000000     -0.000000
      4.18906      2.09453      4.18906         0.000000      0.000000     -0.000000
      6.28359      4.18906      0.00000        -0.000000      0.000000     -0.000000
      0.00000      6.28359      4.18906        -0.000000      0.000000     -0.000000
      2.09453      0.00000      0.00000        -0.000000      0.000000     -0.000000
 -----------------------------------------------------------------------------------
    total drift:                                0.000000      0.000000     -0.000000


--------------------------------------------------------------------------------------------------------



  FREE ENERGIE OF THE ION-ELECTRON SYSTEM (eV)
  ---------------------------------------------------
  free  energy   TOTEN  =      -401.38722546 eV

  energy  without entropy=     -401.38722546  energy(sigma->0) =     -401.38722546
 


--------------------------------------------------------------------------------------------------------


    POTLOK:  cpu time    1.3530: real time    1.3524


--------------------------------------------------------------------------------------------------------


 writing wavefunctions
     LOOP+:  cpu time  533.5900: real time  534.0762
    4ORBIT:  cpu time    0.0000: real time    0.0000
 


 total charge     
 
# of ion       s       p       d       f       tot
--------------------------------------------------
    1        2.149   6.212   7.812   0.009  16.182
    2        2.149   6.212   7.812   0.009  16.182
    3        2.149   6.212   7.812   0.009  16.182
    4        2.149   6.212   7.812   0.009  16.182
    5        2.149   6.212   7.812   0.009  16.182
    6        2.149   6.212   7.812   0.009  16.182
    7        2.149   6.212   7.812   0.009  16.182
    8        2.149   6.212   7.812   0.009  16.182
    9        2.149   6.212   7.812   0.009  16.182
   10        2.149   6.212   7.812   0.009  16.182
   11        2.149   6.212   7.812   0.009  16.182
   12        2.149   6.212   7.812   0.009  16.182
   13        2.149   6.212   7.812   0.009  16.182
   14        2.149   6.212   7.812   0.009  16.182
   15        2.149   6.212   7.812   0.009  16.182
   16        2.149   6.212   7.812   0.009  16.182
   17        2.149   6.212   7.812   0.009  16.182
   18        2.149   6.212   7.812   0.009  16.182
   19        2.149   6.212   7.812   0.009  16.182
   20        2.149   6.212   7.812   0.009  16.182
   21        2.149   6.212   7.812   0.009  16.182
   22        2.149   6.212   7.812   0.009  16.182
   23        2.149   6.212   7.812   0.009  16.182
   24        2.149   6.212   7.812   0.009  16.182
   25        2.149   6.212   7.812   0.009  16.182
   26        2.149   6.212   7.812   0.009  16.182
   27        2.149   6.212   7.812   0.009  16.182
   28        2.149   6.212   7.812   0.009  16.182
   29        2.149   6.212   7.812   0.009  16.182
   30        2.149   6.212   7.812   0.009  16.182
   31        2.149   6.212   7.812   0.009  16.182
   32        2.149   6.212   7.812   0.009  16.182
   33        1.627   3.541   0.018   0.000   5.186
   34        1.627   3.541   0.018   0.000   5.187
   35        1.627   3.541   0.018   0.000   5.186
   36        1.627   3.541   0.018   0.000   5.187
   37        1.627   3.541   0.018   0.000   5.187
   38        1.627   3.541   0.018   0.000   5.187
   39        1.627   3.541   0.018   0.000   5.187
   40        1.627   3.541   0.018   0.000   5.187
   41        1.627   3.541   0.018   0.000   5.186
   42        1.627   3.541   0.018   0.000   5.187
   43        1.627   3.541   0.018   0.000   5.186
   44        1.627   3.541   0.018   0.000   5.187
   45        1.627   3.541   0.018   0.000   5.187
   46        1.627   3.541   0.018   0.000   5.187
   47        1.627   3.541   0.018   0.000   5.187
   48        1.627   3.541   0.018   0.000   5.187
   49        1.627   3.541   0.018   0.000   5.186
   50        1.627   3.541   0.018   0.000   5.187
   51        1.627   3.541   0.018   0.000   5.186
   52        1.627   3.541   0.018   0.000   5.187
   53        1.627   3.541   0.018   0.000   5.187
   54        1.627   3.541   0.018   0.000   5.187
   55        1.627   3.541   0.018   0.000   5.187
   56        1.627   3.541   0.018   0.000   5.187
   57        1.627   3.541   0.018   0.000   5.186
   58        1.627   3.541   0.018   0.000   5.187
   59        1.627   3.541   0.018   0.000   5.186
   60        1.627   3.541   0.018   0.000   5.187
   61        1.627   3.541   0.018   0.000   5.187
   62        1.627   3.541   0.018   0.000   5.187
   63        1.627   3.541   0.018   0.000   5.187
   64        1.627   3.541   0.018   0.000   5.187
--------------------------------------------------
tot        120.828 312.110 250.566   0.289 683.793

 


 magnetization (x)
 
# of ion       s       p       d       f       tot
--------------------------------------------------
    1       -0.003  -0.007   1.327   0.000   1.318
    2       -0.003  -0.007   1.327   0.000   1.318
    3       -0.003  -0.007   1.327   0.000   1.318
    4       -0.003  -0.007   1.327   0.000   1.318
    5       -0.003  -0.007   1.327   0.000   1.318
    6       -0.003  -0.007   1.327   0.000   1.318
    7       -0.003  -0.007   1.327   0.000   1.318
    8       -0.003  -0.007   1.327   0.000   1.318
    9       -0.003  -0.007   1.327   0.000   1.318
   10       -0.003  -0.007   1.327   0.000   1.318
   11       -0.003  -0.007   1.327   0.000   1.318
   12       -0.003  -0.007   1.327   0.000   1.318
   13       -0.003  -0.007   1.327   0.000   1.318
   14       -0.003  -0.007   1.327   0.000   1.318
   15       -0.003  -0.007   1.327   0.000   1.318
   16       -0.003  -0.007   1.327   0.000   1.318
   17        0.003   0.007  -1.327  -0.000  -1.318
   18        0.003   0.007  -1.327  -0.000  -1.318
   19        0.003   0.007  -1.327  -0.000  -1.318
   20        0.003   0.007  -1.327  -0.000  -1.318
   21        0.003   0.007  -1.327  -0.000  -1.318
   22        0.003   0.007  -1.327  -0.000  -1.318
   23        0.003   0.007  -1.327  -0.000  -1.318
   24        0.003   0.007  -1.327  -0.000  -1.318
   25        0.003   0.007  -1.327  -0.000  -1.318
   26        0.003   0.007  -1.327  -0.000  -1.318
   27        0.003   0.007  -1.327  -0.000  -1.318
   28        0.003   0.007  -1.327  -0.000  -1.318
   29        0.003   0.007  -1.327  -0.000  -1.318
   30        0.003   0.007  -1.327  -0.000  -1.318
   31        0.003   0.007  -1.327  -0.000  -1.318
   32        0.003   0.007  -1.327  -0.000  -1.318
   33       -0.000  -0.000   0.000   0.000  -0.000
   34       -0.000  -0.000   0.000   0.000  -0.000
   35       -0.000  -0.000   0.000   0.000  -0.000
   36       -0.000  -0.000  -0.000   0.000  -0.000
   37       -0.000  -0.000   0.000   0.000  -0.000
   38       -0.000  -0.000  -0.000   0.000  -0.000
   39       -0.000  -0.000   0.000   0.000  -0.000
   40       -0.000  -0.000  -0.000   0.000  -0.000
   41       -0.000  -0.000  -0.000   0.000  -0.000
   42       -0.000  -0.000   0.000   0.000  -0.000
   43       -0.000  -0.000  -0.000   0.000  -0.000
   44       -0.000  -0.000  -0.000   0.000  -0.000
   45       -0.000  -0.000  -0.000   0.000  -0.000
   46       -0.000  -0.000   0.000   0.000  -0.000
   47       -0.000  -0.000  -0.000   0.000  -0.000
   48       -0.000  -0.000  -0.000   0.000  -0.000
   49       -0.000  -0.000  -0.000   0.000  -0.000
   50       -0.000  -0.000  -0.000   0.000  -0.000
   51       -0.000  -0.000  -0.000   0.000  -0.000
   52       -0.000  -0.000  -0.000   0.000  -0.000
   53       -0.000  -0.000   0.000   0.000  -0.000
   54       -0.000  -0.000  -0.000   0.000  -0.000
   55       -0.000  -0.000   0.000   0.000  -0.000
   56       -0.000  -0.000  -0.000   0.000  -0.000
   57       -0.000  -0.000  -0.000   0.000  -0.000
   58       -0.000  -0.000  -0.000   0.000  -0.000
   59       -0.000  -0.000  -0.000   0.000  -0.000
   60       -0.000  -0.000  -0.000   0.000  -0.000
   61       -0.000   0.000   0.000   0.000  -0.000
   62       -0.000  -0.000  -0.000   0.000  -0.000
   63       -0.000  -0.000   0.000   0.000  -0.000
   64       -0.000  -0.000  -0.000   0.000  -0.000
--------------------------------------------------
tot         -0.000  -0.000  -0.000   0.000  -0.000

 
