 vasp.5.4.4.18Apr17-6-g9f103f2a35 (build Oct 10 2019 09:51:33) complex          
  
 executed on   carbon_intel19_gpu date 2020.09.25  15:22:25
 running on    1 total cores
 distrk:  each k-point on    1 cores,    1 groups
 distr:  one band on NCORES_PER_BAND=   1 cores,    1 groups


--------------------------------------------------------------------------------------------------------


 INCAR:
 POTCAR:    PAW_PBE Ni_sv_GW 05Dec2013            
 POTCAR:    PAW_PBE O_GW 19Mar2012                
 POTCAR:    PAW_PBE Ni_sv_GW 05Dec2013            
   VRHFIN =Ni:                                                                  
   LEXCH  = PE                                                                  
   EATOM  =  4642.8712 eV,  341.2414 Ry                                         
                                                                                
   TITEL  = PAW_PBE Ni_sv_GW 05Dec2013                                          
   LULTRA =        F    use ultrasoft PP ?                                      
   IUNSCR =        1    unscreen: 0-lin 1-nonlin 2-no                           
   RPACOR =    1.400    partial core radius                                     
   POMASS =   58.690; ZVAL   =   18.000    mass and valenz                      
   RCORE  =    1.900    outmost cutoff radius                                   
   RWIGS  =    2.100; RWIGS  =    1.111    wigner-seitz radius (au A)           
   ENMAX  =  389.645; ENMIN  =  292.234 eV                                      
   RCLOC  =    1.301    cutoff for local pot                                    
   LCOR   =        T    correct aug charges                                     
   LPAW   =        T    paw PP                                                  
   EAUG   = 1036.387                                                            
   RMAX   =    1.945    core radius for proj-oper                               
   RAUG   =    1.300    factor for augmentation sphere                          
   RDEP   =    1.972    radius for radial grids                                 
   RDEPT  =    1.600    core radius for aug-charge                              
                                                                                
   Atomic configuration                                                         
    8 entries                                                                   
     n  l   j            E        occ.                                          
     1  0  0.50     -8203.3308   2.0000                                         
     2  0  0.50      -972.7019   2.0000                                         
     2  1  1.50      -835.6236   6.0000                                         
     3  0  0.50      -102.6944   2.0000                                         
     3  1  1.50       -63.2363   6.0000                                         
     3  1  1.50       -68.0291   0.0000                                         
     3  2  2.50        -1.9692  10.0000                                         
     4  3  2.50        -1.3606   0.0000                                         
   Description                                                                  
     l       E           TYP  RCUT    TYP  RCUT                                 
     0   -102.6944069     23  1.400                                             
     0      1.3605826     23  1.700                                             
     0    204.0873900     23  1.400                                             
     1    -63.2363356     23  1.650                                             
     1    -68.0291300     23  1.650                                             
     1    136.0582600     23  1.650                                             
     2     -1.9691936     23  1.900                                             
     2     27.2116520     23  1.900                                             
     2    136.0582600     23  1.900                                             
     3     27.2116520     23  1.900                                             
     3    136.0582600     23  1.900                                             
  local pseudopotential read in
  partial core-charges read in
  partial kinetic energy density read in
  kinetic energy density of atom read in
  atomic valenz-charges read in
  non local Contribution for L=           0  read in
    real space projection operators read in
  non local Contribution for L=           0  read in
    real space projection operators read in
  non local Contribution for L=           0  read in
    real space projection operators read in
  non local Contribution for L=           1  read in
    real space projection operators read in
  non local Contribution for L=           1  read in
    real space projection operators read in
  non local Contribution for L=           1  read in
    real space projection operators read in
  non local Contribution for L=           2  read in
    real space projection operators read in
  non local Contribution for L=           2  read in
    real space projection operators read in
  non local Contribution for L=           2  read in
    real space projection operators read in
  non local Contribution for L=           3  read in
    real space projection operators read in
  non local Contribution for L=           3  read in
    real space projection operators read in
    PAW grid and wavefunctions read in
 
   number of l-projection  operators is LMAX  =          11
   number of lm-projection operators is LMMAX =          41
 
 POTCAR:    PAW_PBE O_GW 19Mar2012                
   VRHFIN =O: s2p4                                                              
   LEXCH  = PE                                                                  
   EATOM  =   432.3788 eV,   31.7789 Ry                                         
                                                                                
   TITEL  = PAW_PBE O_GW 19Mar2012                                              
   LULTRA =        F    use ultrasoft PP ?                                      
   IUNSCR =        1    unscreen: 0-lin 1-nonlin 2-no                           
   RPACOR =    0.800    partial core radius                                     
   POMASS =   16.000; ZVAL   =    6.000    mass and valenz                      
   RCORE  =    1.600    outmost cutoff radius                                   
   RWIGS  =    1.600; RWIGS  =    0.847    wigner-seitz radius (au A)           
   ENMAX  =  434.431; ENMIN  =  325.824 eV                                      
   ICORE  =        3    local potential                                         
   LCOR   =        T    correct aug charges                                     
   LPAW   =        T    paw PP                                                  
   EAUG   = 1139.609                                                            
   DEXC   =    0.000                                                            
   RMAX   =    1.629    core radius for proj-oper                               
   RAUG   =    1.300    factor for augmentation sphere                          
   RDEP   =    1.652    radius for radial grids                                 
   RDEPT  =    1.200    core radius for aug-charge                              
                                                                                
   Atomic configuration                                                         
    5 entries                                                                   
     n  l   j            E        occ.                                          
     1  0  0.50      -514.6923   2.0000                                         
     2  0  0.50       -23.9615   2.0000                                         
     2  1  0.50        -9.0305   4.0000                                         
     3  2  1.50        -9.5241   0.0000                                         
     4  3  2.50        -9.5241   0.0000                                         
   Description                                                                  
     l       E           TYP  RCUT    TYP  RCUT                                 
     0    -23.9615316     23  1.150                                             
     0    -25.3221142     23  1.150                                             
     0    244.9048680     23  1.300                                             
     1     -9.0304908     23  1.500                                             
     1     -6.9258396     23  1.500                                             
     1    122.4524340     23  1.500                                             
     2     13.6058260     23  1.500                                             
     2    190.4815640     23  1.600                                             
     3     54.4233040     23  1.400                                             
  local pseudopotential read in
  partial core-charges read in
  partial kinetic energy density read in
  kinetic energy density of atom read in
  atomic valenz-charges read in
  non local Contribution for L=           0  read in
    real space projection operators read in
  non local Contribution for L=           0  read in
    real space projection operators read in
  non local Contribution for L=           0  read in
    real space projection operators read in
  non local Contribution for L=           1  read in
    real space projection operators read in
  non local Contribution for L=           1  read in
    real space projection operators read in
  non local Contribution for L=           1  read in
    real space projection operators read in
  non local Contribution for L=           2  read in
    real space projection operators read in
  non local Contribution for L=           2  read in
    real space projection operators read in
    PAW grid and wavefunctions read in
 
   number of l-projection  operators is LMAX  =           8
   number of lm-projection operators is LMMAX =          22
 
 Optimization of the real space projectors (new method)

 maximal supplied QI-value         = 19.84
 optimisation between [QCUT,QGAM] = [ 12.50, 25.00] = [ 43.76,175.03] Ry 
 Optimized for a Real-space Cutoff    1.31 Angstroem

   l    n(q)    QCUT    max X(q) W(low)/X(q) W(high)/X(q)  e(spline) 
   0     10    12.501     2.300    0.65E-05    0.25E-06    0.79E-07
   0     10    12.501     7.576    0.25E-04    0.52E-05    0.18E-06
   0     10    12.501     1.388    0.34E-04    0.75E-05    0.48E-06
   1      9    12.501    11.002    0.11E-03    0.24E-03    0.54E-06
   1      9    12.501    14.537    0.90E-04    0.23E-03    0.70E-06
   1      9    12.501     3.893    0.34E-04    0.51E-04    0.68E-06
   2      9    12.501    14.869    0.32E-03    0.35E-03    0.49E-06
   2      9    12.501     7.291    0.12E-03    0.20E-03    0.30E-06
   2      9    12.501     6.907    0.35E-03    0.37E-03    0.52E-06
   3      8    12.501    10.598    0.33E-03    0.15E-03    0.57E-06
   3      8    12.501     2.997    0.28E-03    0.16E-03    0.51E-06
 Optimization of the real space projectors (new method)

 maximal supplied QI-value         = 23.62
 optimisation between [QCUT,QGAM] = [ 12.52, 25.04] = [ 43.89,175.56] Ry 
 Optimized for a Real-space Cutoff    1.35 Angstroem

   l    n(q)    QCUT    max X(q) W(low)/X(q) W(high)/X(q)  e(spline) 
   0     10    12.519   116.464    0.13E-03    0.15E-03    0.46E-05
   0     10    12.519   116.329    0.13E-03    0.15E-03    0.44E-05
   0     10    12.519     0.942    0.35E-04    0.90E-04    0.23E-05
   1     10    12.519   133.003    0.28E-03    0.77E-04    0.26E-05
   1     10    12.519   116.443    0.28E-03    0.76E-04    0.26E-05
   1     10    12.519     2.481    0.45E-03    0.95E-04    0.45E-05
   2      9    12.519     2.237    0.21E-04    0.33E-04    0.21E-06
   2      9    12.519     2.497    0.16E-03    0.12E-03    0.32E-06
  PAW_PBE Ni_sv_GW 05Dec2013            :
 energy of atom  1       EATOM=-4642.8712
 kinetic energy error for atom=    0.0555 (will be added to EATOM!!)
  PAW_PBE O_GW 19Mar2012                :
 energy of atom  2       EATOM= -432.3788
 kinetic energy error for atom=    0.0188 (will be added to EATOM!!)
 
 
 POSCAR: NiO                                     
  positions in direct lattice
  No initial velocities read in
 exchange correlation table for  LEXCH =        8
   RHO(1)=    0.500       N(1)  =     2000
   RHO(2)=  100.500       N(2)  =     4000
 


--------------------------------------------------------------------------------------------------------


 ion  position               nearest neighbor table
   1  0.000  0.000  0.000-  33 2.09  37 2.09  49 2.09  50 2.09  57 2.09  59 2.09
   2  0.000  0.000  0.500-  34 2.09  38 2.09  49 2.09  50 2.09  58 2.09  60 2.09
   3  0.000  0.500  0.000-  35 2.09  39 2.09  51 2.09  52 2.09  57 2.09  59 2.09
   4  0.000  0.500  0.500-  36 2.09  40 2.09  51 2.09  52 2.09  58 2.09  60 2.09
   5  0.500  0.000  0.000-  33 2.09  37 2.09  53 2.09  54 2.09  61 2.09  63 2.09
   6  0.500  0.000  0.500-  34 2.09  38 2.09  53 2.09  54 2.09  62 2.09  64 2.09
   7  0.500  0.500  0.000-  35 2.09  39 2.09  55 2.09  56 2.09  61 2.09  63 2.09
   8  0.500  0.500  0.500-  36 2.09  40 2.09  55 2.09  56 2.09  62 2.09  64 2.09
   9  0.000  0.250  0.250-  41 2.09  45 2.09  49 2.09  51 2.09  57 2.09  58 2.09
  10  0.000  0.250  0.750-  42 2.09  46 2.09  50 2.09  52 2.09  57 2.09  58 2.09
  11  0.000  0.750  0.250-  43 2.09  47 2.09  49 2.09  51 2.09  59 2.09  60 2.09
  12  0.000  0.750  0.750-  44 2.09  48 2.09  50 2.09  52 2.09  59 2.09  60 2.09
  13  0.500  0.250  0.250-  41 2.09  45 2.09  53 2.09  55 2.09  61 2.09  62 2.09
  14  0.500  0.250  0.750-  42 2.09  46 2.09  54 2.09  56 2.09  61 2.09  62 2.09
  15  0.500  0.750  0.250-  43 2.09  47 2.09  53 2.09  55 2.09  63 2.09  64 2.09
  16  0.500  0.750  0.750-  44 2.09  48 2.09  54 2.09  56 2.09  63 2.09  64 2.09
  17  0.250  0.000  0.250-  33 2.09  34 2.09  41 2.09  43 2.09  49 2.09  53 2.09
  18  0.250  0.000  0.750-  33 2.09  34 2.09  42 2.09  44 2.09  50 2.09  54 2.09
  19  0.250  0.500  0.250-  35 2.09  36 2.09  41 2.09  43 2.09  51 2.09  55 2.09
  20  0.250  0.500  0.750-  35 2.09  36 2.09  42 2.09  44 2.09  52 2.09  56 2.09
  21  0.750  0.000  0.250-  37 2.09  38 2.09  45 2.09  47 2.09  49 2.09  53 2.09
  22  0.750  0.000  0.750-  37 2.09  38 2.09  46 2.09  48 2.09  50 2.09  54 2.09
  23  0.750  0.500  0.250-  39 2.09  40 2.09  45 2.09  47 2.09  51 2.09  55 2.09
  24  0.750  0.500  0.750-  39 2.09  40 2.09  46 2.09  48 2.09  52 2.09  56 2.09
  25  0.250  0.250  0.000-  33 2.09  35 2.09  41 2.09  42 2.09  57 2.09  61 2.09
  26  0.250  0.250  0.500-  34 2.09  36 2.09  41 2.09  42 2.09  58 2.09  62 2.09
  27  0.250  0.750  0.000-  33 2.09  35 2.09  43 2.09  44 2.09  59 2.09  63 2.09
  28  0.250  0.750  0.500-  34 2.09  36 2.09  43 2.09  44 2.09  60 2.09  64 2.09
  29  0.750  0.250  0.000-  37 2.09  39 2.09  45 2.09  46 2.09  57 2.09  61 2.09
  30  0.750  0.250  0.500-  38 2.09  40 2.09  45 2.09  46 2.09  58 2.09  62 2.09
  31  0.750  0.750  0.000-  37 2.09  39 2.09  47 2.09  48 2.09  59 2.09  63 2.09
  32  0.750  0.750  0.500-  38 2.09  40 2.09  47 2.09  48 2.09  60 2.09  64 2.09
  33  0.250  0.000  0.000-   1 2.09   5 2.09  17 2.09  18 2.09  25 2.09  27 2.09
  34  0.250  0.000  0.500-   2 2.09   6 2.09  17 2.09  18 2.09  26 2.09  28 2.09
  35  0.250  0.500  0.000-   3 2.09   7 2.09  19 2.09  20 2.09  25 2.09  27 2.09
  36  0.250  0.500  0.500-   4 2.09   8 2.09  19 2.09  20 2.09  26 2.09  28 2.09
  37  0.750  0.000  0.000-   1 2.09   5 2.09  21 2.09  22 2.09  29 2.09  31 2.09
  38  0.750  0.000  0.500-   2 2.09   6 2.09  21 2.09  22 2.09  30 2.09  32 2.09
  39  0.750  0.500  0.000-   3 2.09   7 2.09  23 2.09  24 2.09  29 2.09  31 2.09
  40  0.750  0.500  0.500-   4 2.09   8 2.09  23 2.09  24 2.09  30 2.09  32 2.09
  41  0.250  0.250  0.250-   9 2.09  13 2.09  17 2.09  19 2.09  25 2.09  26 2.09
  42  0.250  0.250  0.750-  10 2.09  14 2.09  18 2.09  20 2.09  25 2.09  26 2.09
  43  0.250  0.750  0.250-  11 2.09  15 2.09  17 2.09  19 2.09  27 2.09  28 2.09
  44  0.250  0.750  0.750-  12 2.09  16 2.09  18 2.09  20 2.09  27 2.09  28 2.09
  45  0.750  0.250  0.250-   9 2.09  13 2.09  21 2.09  23 2.09  29 2.09  30 2.09
  46  0.750  0.250  0.750-  10 2.09  14 2.09  22 2.09  24 2.09  29 2.09  30 2.09
  47  0.750  0.750  0.250-  11 2.09  15 2.09  21 2.09  23 2.09  31 2.09  32 2.09
  48  0.750  0.750  0.750-  12 2.09  16 2.09  22 2.09  24 2.09  31 2.09  32 2.09
  49  0.000  0.000  0.250-   1 2.09   2 2.09   9 2.09  11 2.09  17 2.09  21 2.09
  50  0.000  0.000  0.750-   1 2.09   2 2.09  10 2.09  12 2.09  18 2.09  22 2.09
  51  0.000  0.500  0.250-   3 2.09   4 2.09   9 2.09  11 2.09  19 2.09  23 2.09
  52  0.000  0.500  0.750-   3 2.09   4 2.09  10 2.09  12 2.09  20 2.09  24 2.09
  53  0.500  0.000  0.250-   5 2.09   6 2.09  13 2.09  15 2.09  17 2.09  21 2.09
  54  0.500  0.000  0.750-   5 2.09   6 2.09  14 2.09  16 2.09  18 2.09  22 2.09
  55  0.500  0.500  0.250-   7 2.09   8 2.09  13 2.09  15 2.09  19 2.09  23 2.09
  56  0.500  0.500  0.750-   7 2.09   8 2.09  14 2.09  16 2.09  20 2.09  24 2.09
  57  0.000  0.250  0.000-   1 2.09   3 2.09   9 2.09  10 2.09  25 2.09  29 2.09
  58  0.000  0.250  0.500-   2 2.09   4 2.09   9 2.09  10 2.09  26 2.09  30 2.09
  59  0.000  0.750  0.000-   1 2.09   3 2.09  11 2.09  12 2.09  27 2.09  31 2.09
  60  0.000  0.750  0.500-   2 2.09   4 2.09  11 2.09  12 2.09  28 2.09  32 2.09
  61  0.500  0.250  0.000-   5 2.09   7 2.09  13 2.09  14 2.09  25 2.09  29 2.09
  62  0.500  0.250  0.500-   6 2.09   8 2.09  13 2.09  14 2.09  26 2.09  30 2.09
  63  0.500  0.750  0.000-   5 2.09   7 2.09  15 2.09  16 2.09  27 2.09  31 2.09
  64  0.500  0.750  0.500-   6 2.09   8 2.09  15 2.09  16 2.09  28 2.09  32 2.09
 
  LATTYP: Found a simple cubic cell.
 ALAT       =     8.3731650000
  
  Lattice vectors:
  
 A1 = (   8.3731650000,   0.0000000000,   0.0000000000)
 A2 = (   0.0000000000,   8.3731650000,   0.0000000000)
 A3 = (   0.0000000000,   0.0000000000,   8.3731650000)


Analysis of symmetry for initial positions (statically):
=====================================================================
 Subroutine PRICEL returns following result:
 
  LATTYP: Found a face centered cubic cell.
 ALAT       =     4.1865825000
  
  Lattice vectors:
  
 A1 = (   2.0932912500,   2.0932912500,   0.0000000000)
 A2 = (   2.0932912500,   0.0000000000,  -2.0932912500)
 A3 = (   0.0000000000,   2.0932912500,  -2.0932912500)
 
  32 primitive cells build up your supercell.
 

 Routine SETGRP: Setting up the symmetry group for a 
 simple cubic supercell.


 Subroutine GETGRP returns: Found 48 space group operations
 (whereof 48 operations were pure point group operations)
 out of a pool of 48 trial point group operations.


The static configuration has the point symmetry O_h .


Analysis of symmetry for dynamics (positions and initial velocities):
=====================================================================
 Subroutine PRICEL returns following result:
 
  LATTYP: Found a face centered cubic cell.
 ALAT       =     4.1865825000
  
  Lattice vectors:
  
 A1 = (   2.0932912500,   2.0932912500,   0.0000000000)
 A2 = (   2.0932912500,   0.0000000000,  -2.0932912500)
 A3 = (   0.0000000000,   2.0932912500,  -2.0932912500)
 
  32 primitive cells build up your supercell.
 

 Routine SETGRP: Setting up the symmetry group for a 
 simple cubic supercell.


 Subroutine GETGRP returns: Found 48 space group operations
 (whereof 48 operations were pure point group operations)
 out of a pool of 48 trial point group operations.


The dynamic configuration has the point symmetry O_h .


Analysis of structural, dynamic, and magnetic symmetry:
=====================================================================
 Subroutine PRICEL returns following result:
 
  LATTYP: Found a face centered cubic cell.
 ALAT       =     4.1865825000
  
  Lattice vectors:
  
 A1 = (   2.0932912500,   2.0932912500,   0.0000000000)
 A2 = (   2.0932912500,   0.0000000000,  -2.0932912500)
 A3 = (   0.0000000000,   2.0932912500,  -2.0932912500)
 
  32 primitive cells build up your supercell.
 

 Routine SETGRP: Setting up the symmetry group for a 
 simple cubic supercell.


 Subroutine GETGRP returns: Found 48 space group operations
 (whereof 48 operations were pure point group operations)
 out of a pool of 48 trial point group operations.


The magnetic configuration has the point symmetry O_h .


 Subroutine INISYM returns: Found 48 space group operations
 (whereof 48 operations are pure point group operations),
 and found    32 'primitive' translations

 
 
 KPOINTS: k-points                                

Automatic generation of k-mesh.
Space group operators:
 irot       det(A)        alpha          n_x          n_y          n_z        tau_x        tau_y        tau_z
    1     1.000000     0.000000     1.000000     0.000000     0.000000     0.000000     0.000000     0.000000
    2    -1.000000     0.000000     1.000000     0.000000     0.000000     0.000000     0.000000     0.000000
    3     1.000000   120.000000    -0.577350    -0.577350    -0.577350     0.000000     0.000000     0.000000
    4    -1.000000   120.000000    -0.577350    -0.577350    -0.577350     0.000000     0.000000     0.000000
    5     1.000000   120.000000     0.577350     0.577350     0.577350     0.000000     0.000000     0.000000
    6    -1.000000   120.000000     0.577350     0.577350     0.577350     0.000000     0.000000     0.000000
    7     1.000000    90.000000     0.000000     0.000000    -1.000000     0.000000     0.000000     0.000000
    8    -1.000000    90.000000     0.000000     0.000000    -1.000000     0.000000     0.000000     0.000000
    9     1.000000   180.000000     0.000000     0.707107     0.707107     0.000000     0.000000     0.000000
   10    -1.000000   180.000000     0.000000     0.707107     0.707107     0.000000     0.000000     0.000000
   11     1.000000    90.000000     0.000000     1.000000     0.000000     0.000000     0.000000     0.000000
   12    -1.000000    90.000000     0.000000     1.000000     0.000000     0.000000     0.000000     0.000000
   13     1.000000   180.000000     0.000000     0.000000     1.000000     0.000000     0.000000     0.000000
   14    -1.000000   180.000000     0.000000     0.000000     1.000000     0.000000     0.000000     0.000000
   15     1.000000   120.000000    -0.577350     0.577350     0.577350     0.000000     0.000000     0.000000
   16    -1.000000   120.000000    -0.577350     0.577350     0.577350     0.000000     0.000000     0.000000
   17     1.000000   120.000000    -0.577350     0.577350    -0.577350     0.000000     0.000000     0.000000
   18    -1.000000   120.000000    -0.577350     0.577350    -0.577350     0.000000     0.000000     0.000000
   19     1.000000    90.000000     0.000000     0.000000     1.000000     0.000000     0.000000     0.000000
   20    -1.000000    90.000000     0.000000     0.000000     1.000000     0.000000     0.000000     0.000000
   21     1.000000    90.000000    -1.000000     0.000000     0.000000     0.000000     0.000000     0.000000
   22    -1.000000    90.000000    -1.000000     0.000000     0.000000     0.000000     0.000000     0.000000
   23     1.000000   180.000000     0.707107     0.000000     0.707107     0.000000     0.000000     0.000000
   24    -1.000000   180.000000     0.707107     0.000000     0.707107     0.000000     0.000000     0.000000
   25     1.000000   120.000000     0.577350    -0.577350     0.577350     0.000000     0.000000     0.000000
   26    -1.000000   120.000000     0.577350    -0.577350     0.577350     0.000000     0.000000     0.000000
   27     1.000000   120.000000    -0.577350    -0.577350     0.577350     0.000000     0.000000     0.000000
   28    -1.000000   120.000000    -0.577350    -0.577350     0.577350     0.000000     0.000000     0.000000
   29     1.000000   180.000000     1.000000     0.000000     0.000000     0.000000     0.000000     0.000000
   30    -1.000000   180.000000     1.000000     0.000000     0.000000     0.000000     0.000000     0.000000
   31     1.000000    90.000000     0.000000    -1.000000     0.000000     0.000000     0.000000     0.000000
   32    -1.000000    90.000000     0.000000    -1.000000     0.000000     0.000000     0.000000     0.000000
   33     1.000000   180.000000     0.707107     0.707107     0.000000     0.000000     0.000000     0.000000
   34    -1.000000   180.000000     0.707107     0.707107     0.000000     0.000000     0.000000     0.000000
   35     1.000000    90.000000     1.000000     0.000000     0.000000     0.000000     0.000000     0.000000
   36    -1.000000    90.000000     1.000000     0.000000     0.000000     0.000000     0.000000     0.000000
   37     1.000000   120.000000     0.577350    -0.577350    -0.577350     0.000000     0.000000     0.000000
   38    -1.000000   120.000000     0.577350    -0.577350    -0.577350     0.000000     0.000000     0.000000
   39     1.000000   180.000000     0.000000     1.000000     0.000000     0.000000     0.000000     0.000000
   40    -1.000000   180.000000     0.000000     1.000000     0.000000     0.000000     0.000000     0.000000
   41     1.000000   120.000000     0.577350     0.577350    -0.577350     0.000000     0.000000     0.000000
   42    -1.000000   120.000000     0.577350     0.577350    -0.577350     0.000000     0.000000     0.000000
   43     1.000000   180.000000     0.000000    -0.707107     0.707107     0.000000     0.000000     0.000000
   44    -1.000000   180.000000     0.000000    -0.707107     0.707107     0.000000     0.000000     0.000000
   45     1.000000   180.000000     0.707107    -0.707107     0.000000     0.000000     0.000000     0.000000
   46    -1.000000   180.000000     0.707107    -0.707107     0.000000     0.000000     0.000000     0.000000
   47     1.000000   180.000000     0.707107     0.000000    -0.707107     0.000000     0.000000     0.000000
   48    -1.000000   180.000000     0.707107     0.000000    -0.707107     0.000000     0.000000     0.000000
 
 Subroutine IBZKPT returns following result:
 ===========================================
 
 Found      4 irreducible k-points:
 
 Following reciprocal coordinates:
            Coordinates               Weight
  0.000000  0.000000  0.000000      1.000000
  0.333333  0.000000  0.000000      6.000000
  0.333333  0.333333  0.000000     12.000000
  0.333333  0.333333  0.333333      8.000000
 
 Following cartesian coordinates:
            Coordinates               Weight
  0.000000  0.000000  0.000000      1.000000
  0.333333  0.000000  0.000000      6.000000
  0.333333  0.333333  0.000000     12.000000
  0.333333  0.333333  0.333333      8.000000
 


--------------------------------------------------------------------------------------------------------




 Dimension of arrays:
   k-points           NKPTS =      4   k-points in BZ     NKDIM =      4   number of bands    NBANDS=    492
   number of dos      NEDOS =    301   number of ions     NIONS =     64
   non local maximal  LDIM  =     11   non local SUM 2l+1 LMDIM =     41
   total plane-waves  NPLWV = 125000
   max r-space proj   IRMAX =   2224   max aug-charges    IRDMAX=   4900
   dimension x,y,z NGX =    50 NGY =   50 NGZ =   50
   dimension x,y,z NGXF=   100 NGYF=  100 NGZF=  100
   support grid    NGXF=   100 NGYF=  100 NGZF=  100
   ions per type =              32  32
   NGX,Y,Z   is equivalent  to a cutoff of   9.93,  9.93,  9.93 a.u.
   NGXF,Y,Z  is equivalent  to a cutoff of  19.85, 19.85, 19.85 a.u.

 SYSTEM =  NiO                                     
 POSCAR =  NiO                                     

 Startparameter for this run:
   NWRITE =      2    write-flag & timer
   PREC   = normal    normal or accurate (medium, high low for compatibility)
   ISTART =      0    job   : 0-new  1-cont  2-samecut
   ICHARG =      2    charge: 1-file 2-atom 10-const
   ISPIN  =      2    spin polarized calculation?
   LNONCOLLINEAR =      F non collinear calculations
   LSORBIT =      F    spin-orbit coupling
   INIWAV =      1    electr: 0-lowe 1-rand  2-diag
   LASPH  =      F    aspherical Exc in radial PAW
   METAGGA=      F    non-selfconsistent MetaGGA calc.

 Electronic Relaxation 1
   ENCUT  =  600.0 eV  44.10 Ry    6.64 a.u.  16.72 16.72 16.72*2*pi/ulx,y,z
   ENINI  =  600.0     initial cutoff
   ENAUG  = 1200.0 eV  augmentation charge cutoff
   NELM   =    100;   NELMIN=  2; NELMDL= -5     # of ELM steps 
   EDIFF  = 0.1E-05   stopping-criterion for ELM
   LREAL  =      T    real-space projection
   NLSPLINE    = F    spline interpolate recip. space projectors
   LCOMPAT=      F    compatible to vasp.4.4
   GGA_COMPAT  = T    GGA compatible to vasp.4.4-vasp.4.6
   LMAXPAW     = -100 max onsite density
   LMAXMIX     =    4 max onsite mixed and CHGCAR
   VOSKOWN=      0    Vosko Wilk Nusair interpolation
   ROPT   =   -0.00050  -0.00050
 Ionic relaxation
   EDIFFG = -.1E-03   stopping-criterion for IOM
   NSW    =      0    number of steps for IOM
   NBLOCK =      1;   KBLOCK =      1    inner block; outer block 
   IBRION =     -1    ionic relax: 0-MD 1-quasi-New 2-CG
   NFREE  =      1    steps in history (QN), initial steepest desc. (CG)
   ISIF   =      2    stress and relaxation
   IWAVPR =     10    prediction:  0-non 1-charg 2-wave 3-comb
   ISYM   =      2    0-nonsym 1-usesym 2-fastsym
   LCORR  =      T    Harris-Foulkes like correction to forces

   POTIM  = 0.2000    time-step for ionic-motion
   TEIN   =    0.0    initial temperature
   TEBEG  =    0.0;   TEEND  =   0.0 temperature during run
   SMASS  =  -3.00    Nose mass-parameter (am)
   estimated Nose-frequenzy (Omega)   =  0.10E-29 period in steps =****** mass=  -0.160E-26a.u.
   SCALEE = 1.0000    scale energy and forces
   NPACO  =    256;   APACO  = 16.0  distance and # of slots for P.C.
   PSTRESS=    0.0 pullay stress

  Mass of Ions in am
   POMASS =  58.69 16.00
  Ionic Valenz
   ZVAL   =  18.00  6.00
  Atomic Wigner-Seitz radii
   RWIGS  =  -1.00 -1.00
  virtual crystal weights 
   VCA    =   1.00  1.00
   NELECT =     768.0000    total number of electrons
   NUPDOWN=      -1.0000    fix difference up-down

 DOS related values:
   EMIN   =  10.00;   EMAX   =-10.00  energy-range for DOS
   EFERMI =   0.00
   ISMEAR =     0;   SIGMA  =   0.00  broadening in eV -4-tet -1-fermi 0-gaus

 Electronic relaxation 2 (details)
   IALGO  =     38    algorithm
   LDIAG  =      T    sub-space diagonalisation (order eigenvalues)
   LSUBROT=      F    optimize rotation matrix (better conditioning)
   TURBO    =      0    0=normal 1=particle mesh
   IRESTART =      0    0=no restart 2=restart with 2 vectors
   NREBOOT  =      0    no. of reboots
   NMIN     =      0    reboot dimension
   EREF     =   0.00    reference energy to select bands
   IMIX   =      4    mixing-type and parameters
     AMIX     =   0.40;   BMIX     =  1.00
     AMIX_MAG =   1.60;   BMIX_MAG =  1.00
     AMIN     =   0.10
     WC   =   100.;   INIMIX=   1;  MIXPRE=   1;  MAXMIX= -45

 Intra band minimization:
   WEIMIN = 0.0000     energy-eigenvalue tresh-hold
   EBREAK =  0.51E-09  absolut break condition
   DEPER  =   0.30     relativ break condition  

   TIME   =   0.40     timestep for ELM

  volume/ion in A,a.u.               =       9.17        61.90
  Fermi-wavevector in a.u.,A,eV,Ry     =   1.790491  3.383538 43.618369  3.205860
  Thomas-Fermi vector in A             =   2.853251
 
 Write flags
   LWAVE        =      T    write WAVECAR
   LDOWNSAMPLE  =      F    k-point downsampling of WAVECAR
   LCHARG       =      T    write CHGCAR
   LVTOT        =      F    write LOCPOT, total local potential
   LVHAR        =      F    write LOCPOT, Hartree potential only
   LELF         =      F    write electronic localiz. function (ELF)
   LORBIT       =     11    0 simple, 1 ext, 2 COOP (PROOUT), +10 PAW based schemes


 Dipole corrections
   LMONO  =      F    monopole corrections only (constant potential shift)
   LDIPOL =      F    correct potential (dipole corrections)
   IDIPOL =      0    1-x, 2-y, 3-z, 4-all directions 
   EPSILON=  1.0000000 bulk dielectric constant

 Exchange correlation treatment:
   GGA     =    --    GGA type
   LEXCH   =     8    internal setting for exchange type
   VOSKOWN=      0    Vosko Wilk Nusair interpolation
   LHFCALC =     F    Hartree Fock is set to
   LHFONE  =     F    Hartree Fock one center treatment
   AEXX    =    0.0000 exact exchange contribution

 Linear response parameters
   LEPSILON=     F    determine dielectric tensor
   LRPA    =     F    only Hartree local field effects (RPA)
   LNABLA  =     F    use nabla operator in PAW spheres
   LVEL    =     F    velocity operator in full k-point grid
   LINTERFAST=   F  fast interpolation
   KINTER  =     0    interpolate to denser k-point grid
   CSHIFT  =0.1000    complex shift for real part using Kramers Kronig
   OMEGAMAX=  -1.0    maximum frequency
   DEG_THRESHOLD= 0.2000000E-02 threshold for treating states as degnerate
   RTIME   =   -0.100 relaxation time in fs
  (WPLASMAI=    0.000 imaginary part of plasma frequency in eV, 0.658/RTIME)
   DFIELD  = 0.0000000 0.0000000 0.0000000 field for delta impulse in time
 
 Orbital magnetization related:
   ORBITALMAG=     F  switch on orbital magnetization
   LCHIMAG   =     F  perturbation theory with respect to B field
   DQ        =  0.001000  dq finite difference perturbation B field
   LLRAUG    =     F  two centre corrections for induced B field



--------------------------------------------------------------------------------------------------------


 Static calculation
 charge density and potential will be updated during run
 spin polarized calculation
 Variant of blocked Davidson
 Davidson routine will perform the subspace rotation
 perform sub-space diagonalisation
    after iterative eigenvector-optimisation
 modified Broyden-mixing scheme, WC =      100.0
 initial mixing is a Kerker type mixing with AMIX =  0.4000 and BMIX =      1.0000
 Hartree-type preconditioning will be used
 using additional bands          108
 real space projection scheme for non local part
 use partial core corrections
 calculate Harris-corrections to forces 
   (improved forces if not selfconsistent)
 use gradient corrections 
 use of overlap-Matrix (Vanderbilt PP)
 Gauss-broadening in eV      SIGMA  =   0.00


--------------------------------------------------------------------------------------------------------


  energy-cutoff  :      600.00
  volume of cell :      587.04
      direct lattice vectors                 reciprocal lattice vectors
     8.373165000  0.000000000  0.000000000     0.119429153  0.000000000  0.000000000
     0.000000000  8.373165000  0.000000000     0.000000000  0.119429153  0.000000000
     0.000000000  0.000000000  8.373165000     0.000000000  0.000000000  0.119429153

  length of vectors
     8.373165000  8.373165000  8.373165000     0.119429153  0.119429153  0.119429153


 
 k-points in units of 2pi/SCALE and weight: k-points                                
   0.00000000  0.00000000  0.00000000       0.037
   0.33333333  0.00000000  0.00000000       0.222
   0.33333333  0.33333333  0.00000000       0.444
   0.33333333  0.33333333  0.33333333       0.296
 
 k-points in reciprocal lattice and weights: k-points                                
   0.00000000  0.00000000  0.00000000       0.037
   0.33333333  0.00000000  0.00000000       0.222
   0.33333333  0.33333333  0.00000000       0.444
   0.33333333  0.33333333  0.33333333       0.296
 
 position of ions in fractional coordinates (direct lattice) 
   0.00000000  0.00000000  0.00000000
   0.00000000  0.00000000  0.50000000
   0.00000000  0.50000000  0.00000000
   0.00000000  0.50000000  0.50000000
   0.50000000  0.00000000  0.00000000
   0.50000000  0.00000000  0.50000000
   0.50000000  0.50000000  0.00000000
   0.50000000  0.50000000  0.50000000
   0.00000000  0.25000000  0.25000000
   0.00000000  0.25000000  0.75000000
   0.00000000  0.75000000  0.25000000
   0.00000000  0.75000000  0.75000000
   0.50000000  0.25000000  0.25000000
   0.50000000  0.25000000  0.75000000
   0.50000000  0.75000000  0.25000000
   0.50000000  0.75000000  0.75000000
   0.25000000  0.00000000  0.25000000
   0.25000000  0.00000000  0.75000000
   0.25000000  0.50000000  0.25000000
   0.25000000  0.50000000  0.75000000
   0.75000000  0.00000000  0.25000000
   0.75000000  0.00000000  0.75000000
   0.75000000  0.50000000  0.25000000
   0.75000000  0.50000000  0.75000000
   0.25000000  0.25000000  0.00000000
   0.25000000  0.25000000  0.50000000
   0.25000000  0.75000000  0.00000000
   0.25000000  0.75000000  0.50000000
   0.75000000  0.25000000  0.00000000
   0.75000000  0.25000000  0.50000000
   0.75000000  0.75000000  0.00000000
   0.75000000  0.75000000  0.50000000
   0.25000000  0.00000000  0.00000000
   0.25000000  0.00000000  0.50000000
   0.25000000  0.50000000  0.00000000
   0.25000000  0.50000000  0.50000000
   0.75000000  0.00000000  0.00000000
   0.75000000  0.00000000  0.50000000
   0.75000000  0.50000000  0.00000000
   0.75000000  0.50000000  0.50000000
   0.25000000  0.25000000  0.25000000
   0.25000000  0.25000000  0.75000000
   0.25000000  0.75000000  0.25000000
   0.25000000  0.75000000  0.75000000
   0.75000000  0.25000000  0.25000000
   0.75000000  0.25000000  0.75000000
   0.75000000  0.75000000  0.25000000
   0.75000000  0.75000000  0.75000000
   0.00000000  0.00000000  0.25000000
   0.00000000  0.00000000  0.75000000
   0.00000000  0.50000000  0.25000000
   0.00000000  0.50000000  0.75000000
   0.50000000  0.00000000  0.25000000
   0.50000000  0.00000000  0.75000000
   0.50000000  0.50000000  0.25000000
   0.50000000  0.50000000  0.75000000
   0.00000000  0.25000000  0.00000000
   0.00000000  0.25000000  0.50000000
   0.00000000  0.75000000  0.00000000
   0.00000000  0.75000000  0.50000000
   0.50000000  0.25000000  0.00000000
   0.50000000  0.25000000  0.50000000
   0.50000000  0.75000000  0.00000000
   0.50000000  0.75000000  0.50000000
 
 position of ions in cartesian coordinates  (Angst):
   0.00000000  0.00000000  0.00000000
   0.00000000  0.00000000  4.18658250
   0.00000000  4.18658250  0.00000000
   0.00000000  4.18658250  4.18658250
   4.18658250  0.00000000  0.00000000
   4.18658250  0.00000000  4.18658250
   4.18658250  4.18658250  0.00000000
   4.18658250  4.18658250  4.18658250
   0.00000000  2.09329125  2.09329125
   0.00000000  2.09329125  6.27987375
   0.00000000  6.27987375  2.09329125
   0.00000000  6.27987375  6.27987375
   4.18658250  2.09329125  2.09329125
   4.18658250  2.09329125  6.27987375
   4.18658250  6.27987375  2.09329125
   4.18658250  6.27987375  6.27987375
   2.09329125  0.00000000  2.09329125
   2.09329125  0.00000000  6.27987375
   2.09329125  4.18658250  2.09329125
   2.09329125  4.18658250  6.27987375
   6.27987375  0.00000000  2.09329125
   6.27987375  0.00000000  6.27987375
   6.27987375  4.18658250  2.09329125
   6.27987375  4.18658250  6.27987375
   2.09329125  2.09329125  0.00000000
   2.09329125  2.09329125  4.18658250
   2.09329125  6.27987375  0.00000000
   2.09329125  6.27987375  4.18658250
   6.27987375  2.09329125  0.00000000
   6.27987375  2.09329125  4.18658250
   6.27987375  6.27987375  0.00000000
   6.27987375  6.27987375  4.18658250
   2.09329125  0.00000000  0.00000000
   2.09329125  0.00000000  4.18658250
   2.09329125  4.18658250  0.00000000
   2.09329125  4.18658250  4.18658250
   6.27987375  0.00000000  0.00000000
   6.27987375  0.00000000  4.18658250
   6.27987375  4.18658250  0.00000000
   6.27987375  4.18658250  4.18658250
   2.09329125  2.09329125  2.09329125
   2.09329125  2.09329125  6.27987375
   2.09329125  6.27987375  2.09329125
   2.09329125  6.27987375  6.27987375
   6.27987375  2.09329125  2.09329125
   6.27987375  2.09329125  6.27987375
   6.27987375  6.27987375  2.09329125
   6.27987375  6.27987375  6.27987375
   0.00000000  0.00000000  2.09329125
   0.00000000  0.00000000  6.27987375
   0.00000000  4.18658250  2.09329125
   0.00000000  4.18658250  6.27987375
   4.18658250  0.00000000  2.09329125
   4.18658250  0.00000000  6.27987375
   4.18658250  4.18658250  2.09329125
   4.18658250  4.18658250  6.27987375
   0.00000000  2.09329125  0.00000000
   0.00000000  2.09329125  4.18658250
   0.00000000  6.27987375  0.00000000
   0.00000000  6.27987375  4.18658250
   4.18658250  2.09329125  0.00000000
   4.18658250  2.09329125  4.18658250
   4.18658250  6.27987375  0.00000000
   4.18658250  6.27987375  4.18658250
 


--------------------------------------------------------------------------------------------------------


 k-point  1 :   0.0000 0.0000 0.0000  plane waves:   19549
 k-point  2 :   0.3333 0.0000 0.0000  plane waves:   19594
 k-point  3 :   0.3333 0.3333 0.0000  plane waves:   19586
 k-point  4 :   0.3333 0.3333 0.3333  plane waves:   19603

 maximum and minimum number of plane-waves per node :     19603    19549

 maximum number of plane-waves:     19603
 maximum index in each direction: 
   IXMAX=   16   IYMAX=   16   IZMAX=   16
   IXMIN=  -17   IYMIN=  -17   IZMIN=  -17


 serial   3D FFT for wavefunctions
 parallel 3D FFT for charge:
    minimum data exchange during FFTs selected (reduces bandwidth)


 total amount of memory used by VASP MPI-rank0  1566004. kBytes
=======================================================================

   base      :      30000. kBytes
   nonlr-proj:      38118. kBytes
   fftplans  :      34720. kBytes
   grid      :      91360. kBytes
   one-center:      10328. kBytes
   wavefun   :    1361478. kBytes
 
     INWAV:  cpu time    0.0001: real time    0.0001
 Broyden mixing: mesh for mixing (old mesh)
   NGX = 33   NGY = 33   NGZ = 33
  (NGX  =100   NGY  =100   NGZ  =100)
  gives a total of  35937 points

 initial charge density was supplied:
 charge density of overlapping atoms calculated
 number of electron     768.0000000 magnetization      64.0000000
 keeping initial charge density in first step


--------------------------------------------------------------------------------------------------------


 Maximum index for non-local projection operator         2176
 Maximum index for augmentation-charges         4553 (set IRDMAX)


--------------------------------------------------------------------------------------------------------


 First call to EWALD:  gamma=   0.212
 Maximum number of real-space cells 3x 3x 3
 Maximum number of reciprocal cells 3x 3x 3

    FEWALD:  cpu time    0.0123: real time    0.0123


----------------------------------------- Iteration    1(   1)  ---------------------------------------


    POTLOK:  cpu time    0.9587: real time    0.9582
    SETDIJ:  cpu time    0.3898: real time    0.3897
     EDDAV:  cpu time   11.1766: real time   11.1778
       DOS:  cpu time    0.0058: real time    0.0058
    --------------------------------------------
      LOOP:  cpu time   12.5333: real time   12.5338

 eigenvalue-minimisations  :  9120
 total energy-change (2. order) : 0.3239318E+05  (-0.2159136E+05)
 number of electron     768.0000000 magnetization      64.0000000
 augmentation part      768.0000000 magnetization      64.0000000

 Free energy of the ion-electron system (eV)
  ---------------------------------------------------
  alpha Z        PSCENC =      5405.26752916
  Ewald energy   TEWEN  =   -103786.92559499
  -Hartree energ DENC   =    -49959.65267748
  -exchange      EXHF   =         0.00000000
  -V(xc)+E(xc)   XCENC  =      5193.39291942
  PAW double counting   =    134449.21163418  -140263.96355224
  entropy T*S    EENTRO =        -0.00006658
  eigenvalues    EBANDS =     18950.23002115
  atomic energy  EATOM  =    162405.62235658
  Solvation  Ediel_sol  =         0.00000000
  ---------------------------------------------------
  free energy    TOTEN  =     32393.18256920 eV

  energy without entropy =    32393.18263578  energy(sigma->0) =    32393.18260249


--------------------------------------------------------------------------------------------------------




----------------------------------------- Iteration    1(   2)  ---------------------------------------


     EDDAV:  cpu time   11.6250: real time   11.6270
       DOS:  cpu time    0.0061: real time    0.0061
    --------------------------------------------
      LOOP:  cpu time   11.6315: real time   11.6335

 eigenvalue-minimisations  :  9592
 total energy-change (2. order) :-0.1981004E+05  (-0.1755086E+05)
 number of electron     768.0000000 magnetization      64.0000000
 augmentation part      768.0000000 magnetization      64.0000000

 Free energy of the ion-electron system (eV)
  ---------------------------------------------------
  alpha Z        PSCENC =      5405.26752916
  Ewald energy   TEWEN  =   -103786.92559499
  -Hartree energ DENC   =    -49959.65267748
  -exchange      EXHF   =         0.00000000
  -V(xc)+E(xc)   XCENC  =      5193.39291942
  PAW double counting   =    134449.21163418  -140263.96355224
  entropy T*S    EENTRO =        -0.00005713
  eigenvalues    EBANDS =      -859.81240888
  atomic energy  EATOM  =    162405.62235658
  Solvation  Ediel_sol  =         0.00000000
  ---------------------------------------------------
  free energy    TOTEN  =     12583.14014862 eV

  energy without entropy =    12583.14020576  energy(sigma->0) =    12583.14017719


--------------------------------------------------------------------------------------------------------




----------------------------------------- Iteration    1(   3)  ---------------------------------------


     EDDAV:  cpu time   13.0248: real time   13.0229
       DOS:  cpu time    0.0059: real time    0.0059
    --------------------------------------------
      LOOP:  cpu time   13.0312: real time   13.0292

 eigenvalue-minimisations  : 11496
 total energy-change (2. order) :-0.9155001E+04  (-0.8480904E+04)
 number of electron     768.0000000 magnetization      64.0000000
 augmentation part      768.0000000 magnetization      64.0000000

 Free energy of the ion-electron system (eV)
  ---------------------------------------------------
  alpha Z        PSCENC =      5405.26752916
  Ewald energy   TEWEN  =   -103786.92559499
  -Hartree energ DENC   =    -49959.65267748
  -exchange      EXHF   =         0.00000000
  -V(xc)+E(xc)   XCENC  =      5193.39291942
  PAW double counting   =    134449.21163418  -140263.96355224
  entropy T*S    EENTRO =        -0.00004313
  eigenvalues    EBANDS =    -10014.81309203
  atomic energy  EATOM  =    162405.62235658
  Solvation  Ediel_sol  =         0.00000000
  ---------------------------------------------------
  free energy    TOTEN  =      3428.13947947 eV

  energy without entropy =     3428.13952260  energy(sigma->0) =     3428.13950103


--------------------------------------------------------------------------------------------------------




----------------------------------------- Iteration    1(   4)  ---------------------------------------


     EDDAV:  cpu time   15.8686: real time   15.8662
       DOS:  cpu time    0.0060: real time    0.0060
    --------------------------------------------
      LOOP:  cpu time   15.8750: real time   15.8727

 eigenvalue-minimisations  : 15084
 total energy-change (2. order) :-0.2872736E+04  (-0.2614178E+04)
 number of electron     768.0000000 magnetization      64.0000000
 augmentation part      768.0000000 magnetization      64.0000000

 Free energy of the ion-electron system (eV)
  ---------------------------------------------------
  alpha Z        PSCENC =      5405.26752916
  Ewald energy   TEWEN  =   -103786.92559499
  -Hartree energ DENC   =    -49959.65267748
  -exchange      EXHF   =         0.00000000
  -V(xc)+E(xc)   XCENC  =      5193.39291942
  PAW double counting   =    134449.21163418  -140263.96355224
  entropy T*S    EENTRO =        -0.00008019
  eigenvalues    EBANDS =    -12887.54894981
  atomic energy  EATOM  =    162405.62235658
  Solvation  Ediel_sol  =         0.00000000
  ---------------------------------------------------
  free energy    TOTEN  =       555.40358463 eV

  energy without entropy =      555.40366482  energy(sigma->0) =      555.40362472


--------------------------------------------------------------------------------------------------------




----------------------------------------- Iteration    1(   5)  ---------------------------------------


     EDDAV:  cpu time   16.0135: real time   16.0128
       DOS:  cpu time    0.0059: real time    0.0059
    CHARGE:  cpu time    3.1403: real time    3.1395
    MIXING:  cpu time    0.0227: real time    0.0227
    --------------------------------------------
      LOOP:  cpu time   19.1829: real time   19.1814

 eigenvalue-minimisations  : 15280
 total energy-change (2. order) :-0.7652872E+03  (-0.6458416E+03)
 number of electron     768.0004798 magnetization      55.3201038
 augmentation part      292.3588107 magnetization      40.6960254

 Broyden mixing:
  rms(total) = 0.12739E+02    rms(broyden)= 0.12735E+02
  rms(prec ) = 0.14077E+02
  weight for this iteration     100.00

 Free energy of the ion-electron system (eV)
  ---------------------------------------------------
  alpha Z        PSCENC =      5405.26752916
  Ewald energy   TEWEN  =   -103786.92559499
  -Hartree energ DENC   =    -49959.65267748
  -exchange      EXHF   =         0.00000000
  -V(xc)+E(xc)   XCENC  =      5193.39291942
  PAW double counting   =    134449.21163418  -140263.96355224
  entropy T*S    EENTRO =        -0.00009519
  eigenvalues    EBANDS =    -13652.83613333
  atomic energy  EATOM  =    162405.62235658
  Solvation  Ediel_sol  =         0.00000000
  ---------------------------------------------------
  free energy    TOTEN  =      -209.88361389 eV

  energy without entropy =     -209.88351870  energy(sigma->0) =     -209.88356629


--------------------------------------------------------------------------------------------------------




----------------------------------------- Iteration    1(   6)  ---------------------------------------


    POTLOK:  cpu time    0.9654: real time    0.9650
    SETDIJ:  cpu time    0.4057: real time    0.4056
     EDDAV:  cpu time   15.9515: real time   15.9537
       DOS:  cpu time    0.0057: real time    0.0057
    CHARGE:  cpu time    3.1291: real time    3.1283
    MIXING:  cpu time    0.0239: real time    0.0239
    --------------------------------------------
      LOOP:  cpu time   20.4821: real time   20.4829

 eigenvalue-minimisations  : 15176
 total energy-change (2. order) :-0.1294449E+03  (-0.2302353E+03)
 number of electron     768.0004500 magnetization      53.0291774
 augmentation part      318.3523757 magnetization      36.1512845

 Broyden mixing:
  rms(total) = 0.34485E+01    rms(broyden)= 0.34351E+01
  rms(prec ) = 0.39992E+01
  weight for this iteration     100.00

 eigenvalues of (default mixing * dielectric matrix)
  average eigenvalue GAMMA=   0.9349
  0.9349

 Free energy of the ion-electron system (eV)
  ---------------------------------------------------
  alpha Z        PSCENC =      5405.26752916
  Ewald energy   TEWEN  =   -103786.92559499
  -Hartree energ DENC   =    -47388.30582511
  -exchange      EXHF   =         0.00000000
  -V(xc)+E(xc)   XCENC  =      5104.86063193
  PAW double counting   =    138359.00390595  -144049.13228180
  entropy T*S    EENTRO =        -0.00004013
  eigenvalues    EBANDS =    -16389.71915579
  atomic energy  EATOM  =    162405.62235658
  Solvation  Ediel_sol  =         0.00000000
  ---------------------------------------------------
  free energy    TOTEN  =      -339.32847420 eV

  energy without entropy =     -339.32843407  energy(sigma->0) =     -339.32845414


--------------------------------------------------------------------------------------------------------




----------------------------------------- Iteration    1(   7)  ---------------------------------------


    POTLOK:  cpu time    0.9600: real time    0.9595
    SETDIJ:  cpu time    0.4059: real time    0.4057
     EDDAV:  cpu time   13.9863: real time   13.9873
       DOS:  cpu time    0.0058: real time    0.0058
    CHARGE:  cpu time    3.1331: real time    3.1322
    MIXING:  cpu time    0.0259: real time    0.0259
    --------------------------------------------
      LOOP:  cpu time   18.5176: real time   18.5170

 eigenvalue-minimisations  : 12740
 total energy-change (2. order) :-0.4210483E+02  (-0.6640807E+02)
 number of electron     768.0004267 magnetization      55.5427747
 augmentation part      308.1624541 magnetization      36.0156465

 Broyden mixing:
  rms(total) = 0.20538E+01    rms(broyden)= 0.20507E+01
  rms(prec ) = 0.27144E+01
  weight for this iteration     100.00

 eigenvalues of (default mixing * dielectric matrix)
  average eigenvalue GAMMA=   0.9133
  0.9133  0.9133

 Free energy of the ion-electron system (eV)
  ---------------------------------------------------
  alpha Z        PSCENC =      5405.26752916
  Ewald energy   TEWEN  =   -103786.92559499
  -Hartree energ DENC   =    -47756.15252555
  -exchange      EXHF   =         0.00000000
  -V(xc)+E(xc)   XCENC  =      5128.86293499
  PAW double counting   =    140610.51730163  -146684.44191787
  entropy T*S    EENTRO =        -0.00009987
  eigenvalues    EBANDS =    -15704.18328355
  atomic energy  EATOM  =    162405.62235658
  Solvation  Ediel_sol  =         0.00000000
  ---------------------------------------------------
  free energy    TOTEN  =      -381.43329946 eV

  energy without entropy =     -381.43319959  energy(sigma->0) =     -381.43324953


--------------------------------------------------------------------------------------------------------




----------------------------------------- Iteration    1(   8)  ---------------------------------------


    POTLOK:  cpu time    0.9511: real time    0.9508
    SETDIJ:  cpu time    0.4058: real time    0.4056
     EDDAV:  cpu time   15.7986: real time   15.8028
       DOS:  cpu time    0.0060: real time    0.0060
    CHARGE:  cpu time    3.1200: real time    3.1193
    MIXING:  cpu time    0.0305: real time    0.0305
    --------------------------------------------
      LOOP:  cpu time   20.3126: real time   20.3156

 eigenvalue-minimisations  : 15208
 total energy-change (2. order) :-0.9464601E+01  (-0.1622581E+02)
 number of electron     768.0004408 magnetization      55.7245821
 augmentation part      312.5035053 magnetization      37.3718345

 Broyden mixing:
  rms(total) = 0.16284E+01    rms(broyden)= 0.16280E+01
  rms(prec ) = 0.17919E+01
  weight for this iteration     100.00

 eigenvalues of (default mixing * dielectric matrix)
  average eigenvalue GAMMA=   0.8070
  1.0083  1.0083  0.4044

 Free energy of the ion-electron system (eV)
  ---------------------------------------------------
  alpha Z        PSCENC =      5405.26752916
  Ewald energy   TEWEN  =   -103786.92559499
  -Hartree energ DENC   =    -47520.30356250
  -exchange      EXHF   =         0.00000000
  -V(xc)+E(xc)   XCENC  =      5130.25357012
  PAW double counting   =    140581.90559669  -146638.78481731
  entropy T*S    EENTRO =        -0.00017458
  eigenvalues    EBANDS =    -15967.93280347
  atomic energy  EATOM  =    162405.62235658
  Solvation  Ediel_sol  =         0.00000000
  ---------------------------------------------------
  free energy    TOTEN  =      -390.89790031 eV

  energy without entropy =     -390.89772572  energy(sigma->0) =     -390.89781301


--------------------------------------------------------------------------------------------------------




----------------------------------------- Iteration    1(   9)  ---------------------------------------


    POTLOK:  cpu time    0.9589: real time    0.9586
    SETDIJ:  cpu time    0.4058: real time    0.4057
     EDDAV:  cpu time   14.1638: real time   14.1637
       DOS:  cpu time    0.0054: real time    0.0054
    CHARGE:  cpu time    3.1088: real time    3.1081
    MIXING:  cpu time    0.0324: real time    0.0324
    --------------------------------------------
      LOOP:  cpu time   18.6756: real time   18.6746

 eigenvalue-minimisations  : 12896
 total energy-change (2. order) :-0.1664278E+01  (-0.2960114E+01)
 number of electron     768.0004413 magnetization      52.4740140
 augmentation part      310.1208213 magnetization      35.0025420

 Broyden mixing:
  rms(total) = 0.85873E+00    rms(broyden)= 0.85792E+00
  rms(prec ) = 0.93683E+00
  weight for this iteration     100.00

 eigenvalues of (default mixing * dielectric matrix)
  average eigenvalue GAMMA=   0.9753
  1.2040  1.0603  1.0603  0.5768

 Free energy of the ion-electron system (eV)
  ---------------------------------------------------
  alpha Z        PSCENC =      5405.26752916
  Ewald energy   TEWEN  =   -103786.92559499
  -Hartree energ DENC   =    -47694.46751163
  -exchange      EXHF   =         0.00000000
  -V(xc)+E(xc)   XCENC  =      5137.77573137
  PAW double counting   =    140803.60716145  -146906.23504084
  entropy T*S    EENTRO =        -0.00011859
  eigenvalues    EBANDS =    -15757.20669056
  atomic energy  EATOM  =    162405.62235658
  Solvation  Ediel_sol  =         0.00000000
  ---------------------------------------------------
  free energy    TOTEN  =      -392.56217806 eV

  energy without entropy =     -392.56205947  energy(sigma->0) =     -392.56211877


--------------------------------------------------------------------------------------------------------




----------------------------------------- Iteration    1(  10)  ---------------------------------------


    POTLOK:  cpu time    0.9481: real time    0.9476
    SETDIJ:  cpu time    0.4061: real time    0.4060
     EDDAV:  cpu time   16.1411: real time   16.1401
       DOS:  cpu time    0.0062: real time    0.0062
    CHARGE:  cpu time    3.1210: real time    3.1203
    MIXING:  cpu time    0.0395: real time    0.0394
    --------------------------------------------
      LOOP:  cpu time   20.6626: real time   20.6603

 eigenvalue-minimisations  : 15544
 total energy-change (2. order) :-0.4677575E+00  (-0.5872584E+00)
 number of electron     768.0004391 magnetization      48.5086224
 augmentation part      309.4566633 magnetization      31.5063728

 Broyden mixing:
  rms(total) = 0.42377E+00    rms(broyden)= 0.42352E+00
  rms(prec ) = 0.43944E+00
  weight for this iteration     100.00

 eigenvalues of (default mixing * dielectric matrix)
  average eigenvalue GAMMA=   1.1490
  1.7221  1.7221  0.5727  0.8642  0.8642

 Free energy of the ion-electron system (eV)
  ---------------------------------------------------
  alpha Z        PSCENC =      5405.26752916
  Ewald energy   TEWEN  =   -103786.92559499
  -Hartree energ DENC   =    -47739.20120187
  -exchange      EXHF   =         0.00000000
  -V(xc)+E(xc)   XCENC  =      5137.17884924
  PAW double counting   =    140996.07300485  -147080.67995858
  entropy T*S    EENTRO =        -0.00023646
  eigenvalues    EBANDS =    -15730.36468346
  atomic energy  EATOM  =    162405.62235658
  Solvation  Ediel_sol  =         0.00000000
  ---------------------------------------------------
  free energy    TOTEN  =      -393.02993553 eV

  energy without entropy =     -393.02969907  energy(sigma->0) =     -393.02981730


--------------------------------------------------------------------------------------------------------




----------------------------------------- Iteration    1(  11)  ---------------------------------------


    POTLOK:  cpu time    0.9590: real time    0.9587
    SETDIJ:  cpu time    0.4114: real time    0.4113
     EDDAV:  cpu time   15.8804: real time   15.8885
       DOS:  cpu time    0.0060: real time    0.0060
    CHARGE:  cpu time    3.1226: real time    3.1223
    MIXING:  cpu time    0.0400: real time    0.0400
    --------------------------------------------
      LOOP:  cpu time   20.4201: real time   20.4273

 eigenvalue-minimisations  : 15008
 total energy-change (2. order) :-0.1094502E+00  (-0.8275194E-01)
 number of electron     768.0004402 magnetization      48.1908312
 augmentation part      309.1760910 magnetization      31.5992166

 Broyden mixing:
  rms(total) = 0.28427E+00    rms(broyden)= 0.28390E+00
  rms(prec ) = 0.31156E+00
  weight for this iteration     100.00

 eigenvalues of (default mixing * dielectric matrix)
  average eigenvalue GAMMA=   1.1179
  2.3142  1.4012  0.9204  0.9204  0.5463  0.6048

 Free energy of the ion-electron system (eV)
  ---------------------------------------------------
  alpha Z        PSCENC =      5405.26752916
  Ewald energy   TEWEN  =   -103786.92559499
  -Hartree energ DENC   =    -47789.12875417
  -exchange      EXHF   =         0.00000000
  -V(xc)+E(xc)   XCENC  =      5138.14940897
  PAW double counting   =    140891.69421977  -146958.03772336
  entropy T*S    EENTRO =        -0.00015457
  eigenvalues    EBANDS =    -15699.78067307
  atomic energy  EATOM  =    162405.62235658
  Solvation  Ediel_sol  =         0.00000000
  ---------------------------------------------------
  free energy    TOTEN  =      -393.13938569 eV

  energy without entropy =     -393.13923112  energy(sigma->0) =     -393.13930841


--------------------------------------------------------------------------------------------------------




----------------------------------------- Iteration    1(  12)  ---------------------------------------


    POTLOK:  cpu time    0.9545: real time    0.9544
    SETDIJ:  cpu time    0.4107: real time    0.4107
     EDDAV:  cpu time   14.8896: real time   14.8977
       DOS:  cpu time    0.0063: real time    0.0063
    CHARGE:  cpu time    3.0795: real time    3.0795
    MIXING:  cpu time    0.0464: real time    0.0464
    --------------------------------------------
      LOOP:  cpu time   19.3878: real time   19.3957

 eigenvalue-minimisations  : 13936
 total energy-change (2. order) :-0.3796826E-01  (-0.1492685E-01)
 number of electron     768.0004406 magnetization      48.3216906
 augmentation part      309.1877733 magnetization      31.8051599

 Broyden mixing:
  rms(total) = 0.12641E+00    rms(broyden)= 0.12631E+00
  rms(prec ) = 0.12948E+00
  weight for this iteration     100.00

 eigenvalues of (default mixing * dielectric matrix)
  average eigenvalue GAMMA=   1.1251
  2.2933  1.1476  1.1476  1.0449  1.0449  0.6372  0.5601

 Free energy of the ion-electron system (eV)
  ---------------------------------------------------
  alpha Z        PSCENC =      5405.26752916
  Ewald energy   TEWEN  =   -103786.92559499
  -Hartree energ DENC   =    -47798.30620907
  -exchange      EXHF   =         0.00000000
  -V(xc)+E(xc)   XCENC  =      5139.23404184
  PAW double counting   =    140842.72453844  -146910.22121155
  entropy T*S    EENTRO =        -0.00015460
  eigenvalues    EBANDS =    -15690.57264976
  atomic energy  EATOM  =    162405.62235658
  Solvation  Ediel_sol  =         0.00000000
  ---------------------------------------------------
  free energy    TOTEN  =      -393.17735395 eV

  energy without entropy =     -393.17719936  energy(sigma->0) =     -393.17727666


--------------------------------------------------------------------------------------------------------




----------------------------------------- Iteration    1(  13)  ---------------------------------------


    POTLOK:  cpu time    0.9581: real time    0.9579
    SETDIJ:  cpu time    0.4082: real time    0.4082
     EDDAV:  cpu time   15.6653: real time   15.6765
       DOS:  cpu time    0.0060: real time    0.0060
    CHARGE:  cpu time    3.0759: real time    3.0756
    MIXING:  cpu time    0.0576: real time    0.0575
    --------------------------------------------
      LOOP:  cpu time   20.1716: real time   20.1824

 eigenvalue-minimisations  : 14872
 total energy-change (2. order) :-0.1404962E-01  (-0.6818178E-02)
 number of electron     768.0004405 magnetization      48.0083303
 augmentation part      309.1667950 magnetization      31.6434602

 Broyden mixing:
  rms(total) = 0.50841E-01    rms(broyden)= 0.50829E-01
  rms(prec ) = 0.52063E-01
  weight for this iteration     100.00

 eigenvalues of (default mixing * dielectric matrix)
  average eigenvalue GAMMA=   1.1816
  2.6119  1.4791  1.4791  0.9571  0.9571  0.5569  0.7059  0.7059

 Free energy of the ion-electron system (eV)
  ---------------------------------------------------
  alpha Z        PSCENC =      5405.26752916
  Ewald energy   TEWEN  =   -103786.92559499
  -Hartree energ DENC   =    -47797.24596887
  -exchange      EXHF   =         0.00000000
  -V(xc)+E(xc)   XCENC  =      5139.59241260
  PAW double counting   =    140822.34576338  -146892.38734394
  entropy T*S    EENTRO =        -0.00015461
  eigenvalues    EBANDS =    -15689.46040289
  atomic energy  EATOM  =    162405.62235658
  Solvation  Ediel_sol  =         0.00000000
  ---------------------------------------------------
  free energy    TOTEN  =      -393.19140357 eV

  energy without entropy =     -393.19124897  energy(sigma->0) =     -393.19132627


--------------------------------------------------------------------------------------------------------




----------------------------------------- Iteration    1(  14)  ---------------------------------------


    POTLOK:  cpu time    0.9508: real time    0.9506
    SETDIJ:  cpu time    0.4120: real time    0.4119
     EDDAV:  cpu time   14.4711: real time   14.4853
       DOS:  cpu time    0.0056: real time    0.0056
    CHARGE:  cpu time    3.0608: real time    3.0602
    MIXING:  cpu time    0.0539: real time    0.0539
    --------------------------------------------
      LOOP:  cpu time   18.9548: real time   18.9681

 eigenvalue-minimisations  : 13216
 total energy-change (2. order) :-0.1230995E-02  (-0.7603714E-03)
 number of electron     768.0004406 magnetization      48.0612653
 augmentation part      309.1952004 magnetization      31.6766181

 Broyden mixing:
  rms(total) = 0.12586E-01    rms(broyden)= 0.12577E-01
  rms(prec ) = 0.12861E-01
  weight for this iteration     100.00

 eigenvalues of (default mixing * dielectric matrix)
  average eigenvalue GAMMA=   1.1628
  2.4885  1.6768  1.5117  1.0101  1.0101  0.7713  0.7713  0.5592  0.6661

 Free energy of the ion-electron system (eV)
  ---------------------------------------------------
  alpha Z        PSCENC =      5405.26752916
  Ewald energy   TEWEN  =   -103786.92559499
  -Hartree energ DENC   =    -47794.82995183
  -exchange      EXHF   =         0.00000000
  -V(xc)+E(xc)   XCENC  =      5139.38970401
  PAW double counting   =    140805.39239341  -146873.92527287
  entropy T*S    EENTRO =        -0.00015460
  eigenvalues    EBANDS =    -15693.18364343
  atomic energy  EATOM  =    162405.62235658
  Solvation  Ediel_sol  =         0.00000000
  ---------------------------------------------------
  free energy    TOTEN  =      -393.19263457 eV

  energy without entropy =     -393.19247997  energy(sigma->0) =     -393.19255727


--------------------------------------------------------------------------------------------------------




----------------------------------------- Iteration    1(  15)  ---------------------------------------


    POTLOK:  cpu time    0.9519: real time    0.9514
    SETDIJ:  cpu time    0.4060: real time    0.4058
     EDDAV:  cpu time   15.4349: real time   15.4420
       DOS:  cpu time    0.0061: real time    0.0061
    CHARGE:  cpu time    3.0728: real time    3.0721
    MIXING:  cpu time    0.0570: real time    0.0569
    --------------------------------------------
      LOOP:  cpu time   19.9293: real time   19.9350

 eigenvalue-minimisations  : 14592
 total energy-change (2. order) :-0.3154629E-03  (-0.1631170E-03)
 number of electron     768.0004406 magnetization      48.0691356
 augmentation part      309.2047575 magnetization      31.6848831

 Broyden mixing:
  rms(total) = 0.79878E-02    rms(broyden)= 0.79876E-02
  rms(prec ) = 0.89777E-02
  weight for this iteration     100.00

 eigenvalues of (default mixing * dielectric matrix)
  average eigenvalue GAMMA=   1.1693
  2.3957  2.1990  1.2843  1.2843  0.9506  0.9506  0.7313  0.7313  0.5578  0.6084

 Free energy of the ion-electron system (eV)
  ---------------------------------------------------
  alpha Z        PSCENC =      5405.26752916
  Ewald energy   TEWEN  =   -103786.92559499
  -Hartree energ DENC   =    -47794.08000018
  -exchange      EXHF   =         0.00000000
  -V(xc)+E(xc)   XCENC  =      5139.32444433
  PAW double counting   =    140801.60080112  -146869.84249321
  entropy T*S    EENTRO =        -0.00015460
  eigenvalues    EBANDS =    -15694.15983823
  atomic energy  EATOM  =    162405.62235658
  Solvation  Ediel_sol  =         0.00000000
  ---------------------------------------------------
  free energy    TOTEN  =      -393.19295003 eV

  energy without entropy =     -393.19279543  energy(sigma->0) =     -393.19287273


--------------------------------------------------------------------------------------------------------




----------------------------------------- Iteration    1(  16)  ---------------------------------------


    POTLOK:  cpu time    0.9640: real time    0.9636
    SETDIJ:  cpu time    0.4077: real time    0.4075
     EDDAV:  cpu time   15.5863: real time   15.5937
       DOS:  cpu time    0.0057: real time    0.0057
    CHARGE:  cpu time    3.0880: real time    3.0873
    MIXING:  cpu time    0.0695: real time    0.0694
    --------------------------------------------
      LOOP:  cpu time   20.1218: real time   20.1279

 eigenvalue-minimisations  : 14792
 total energy-change (2. order) :-0.3869261E-04  (-0.2229001E-04)
 number of electron     768.0004406 magnetization      48.0736004
 augmentation part      309.1990406 magnetization      31.6858134

 Broyden mixing:
  rms(total) = 0.40430E-02    rms(broyden)= 0.40419E-02
  rms(prec ) = 0.45265E-02
  weight for this iteration     100.00

 eigenvalues of (default mixing * dielectric matrix)
  average eigenvalue GAMMA=   1.1934
  2.5065  2.5065  1.4280  1.4280  0.9768  0.9768  0.7588  0.7588  0.5588  0.6140
  0.6140

 Free energy of the ion-electron system (eV)
  ---------------------------------------------------
  alpha Z        PSCENC =      5405.26752916
  Ewald energy   TEWEN  =   -103786.92559499
  -Hartree energ DENC   =    -47795.07525716
  -exchange      EXHF   =         0.00000000
  -V(xc)+E(xc)   XCENC  =      5139.36300587
  PAW double counting   =    140796.73396188  -146864.85798590
  entropy T*S    EENTRO =        -0.00015460
  eigenvalues    EBANDS =    -15693.32084956
  atomic energy  EATOM  =    162405.62235658
  Solvation  Ediel_sol  =         0.00000000
  ---------------------------------------------------
  free energy    TOTEN  =      -393.19298873 eV

  energy without entropy =     -393.19283413  energy(sigma->0) =     -393.19291143


--------------------------------------------------------------------------------------------------------




----------------------------------------- Iteration    1(  17)  ---------------------------------------


    POTLOK:  cpu time    0.9545: real time    0.9541
    SETDIJ:  cpu time    0.4075: real time    0.4073
     EDDAV:  cpu time   14.7882: real time   14.7963
       DOS:  cpu time    0.0059: real time    0.0059
    CHARGE:  cpu time    3.0836: real time    3.0829
    MIXING:  cpu time    0.0666: real time    0.0666
    --------------------------------------------
      LOOP:  cpu time   19.3070: real time   19.3138

 eigenvalue-minimisations  : 13512
 total energy-change (2. order) :-0.1283098E-04  (-0.6629632E-05)
 number of electron     768.0004406 magnetization      48.0727555
 augmentation part      309.1957409 magnetization      31.6840334

 Broyden mixing:
  rms(total) = 0.12394E-02    rms(broyden)= 0.12382E-02
  rms(prec ) = 0.13128E-02
  weight for this iteration     100.00

 eigenvalues of (default mixing * dielectric matrix)
  average eigenvalue GAMMA=   1.1656
  2.5142  2.3583  1.4416  1.4416  0.9715  0.9715  0.8922  0.8922  0.5583  0.6581
  0.6581  0.6298

 Free energy of the ion-electron system (eV)
  ---------------------------------------------------
  alpha Z        PSCENC =      5405.26752916
  Ewald energy   TEWEN  =   -103786.92559499
  -Hartree energ DENC   =    -47795.66375053
  -exchange      EXHF   =         0.00000000
  -V(xc)+E(xc)   XCENC  =      5139.39418129
  PAW double counting   =    140793.99162493  -146862.05185607
  entropy T*S    EENTRO =        -0.00015460
  eigenvalues    EBANDS =    -15692.82733732
  atomic energy  EATOM  =    162405.62235658
  Solvation  Ediel_sol  =         0.00000000
  ---------------------------------------------------
  free energy    TOTEN  =      -393.19300156 eV

  energy without entropy =     -393.19284696  energy(sigma->0) =     -393.19292426


--------------------------------------------------------------------------------------------------------




----------------------------------------- Iteration    1(  18)  ---------------------------------------


    POTLOK:  cpu time    0.9507: real time    0.9503
    SETDIJ:  cpu time    0.4117: real time    0.4116
     EDDAV:  cpu time   11.3768: real time   11.3954
       DOS:  cpu time    0.0057: real time    0.0057
    CHARGE:  cpu time    3.0787: real time    3.0780
    MIXING:  cpu time    0.0753: real time    0.0753
    --------------------------------------------
      LOOP:  cpu time   15.8995: real time   15.9168

 eigenvalue-minimisations  :  9368
 total energy-change (2. order) :-0.2712128E-05  (-0.1240597E-05)
 number of electron     768.0004406 magnetization      48.0742235
 augmentation part      309.1969243 magnetization      31.6852301

 Broyden mixing:
  rms(total) = 0.45072E-03    rms(broyden)= 0.45034E-03
  rms(prec ) = 0.49346E-03
  weight for this iteration     100.00

 eigenvalues of (default mixing * dielectric matrix)
  average eigenvalue GAMMA=   1.1503
  2.4651  2.3210  1.4238  1.4238  0.9690  0.9690  1.0712  0.8781  0.8781  0.5582
  0.6821  0.6821  0.6317

 Free energy of the ion-electron system (eV)
  ---------------------------------------------------
  alpha Z        PSCENC =      5405.26752916
  Ewald energy   TEWEN  =   -103786.92559499
  -Hartree energ DENC   =    -47795.54793866
  -exchange      EXHF   =         0.00000000
  -V(xc)+E(xc)   XCENC  =      5139.39107774
  PAW double counting   =    140794.25775917  -146862.29333527
  entropy T*S    EENTRO =        -0.00015460
  eigenvalues    EBANDS =    -15692.96470340
  atomic energy  EATOM  =    162405.62235658
  Solvation  Ediel_sol  =         0.00000000
  ---------------------------------------------------
  free energy    TOTEN  =      -393.19300427 eV

  energy without entropy =     -393.19284967  energy(sigma->0) =     -393.19292697


--------------------------------------------------------------------------------------------------------




----------------------------------------- Iteration    1(  19)  ---------------------------------------


    POTLOK:  cpu time    0.9543: real time    0.9539
    SETDIJ:  cpu time    0.4102: real time    0.4101
     EDDAV:  cpu time    9.3420: real time    9.3468
       DOS:  cpu time    0.0060: real time    0.0060
    CHARGE:  cpu time    3.0678: real time    3.0671
    MIXING:  cpu time    0.0882: real time    0.0881
    --------------------------------------------
      LOOP:  cpu time   13.8692: real time   13.8725

 eigenvalue-minimisations  :  6864
 total energy-change (2. order) :-0.2487883E-05  (-0.4175026E-06)
 number of electron     768.0004406 magnetization      48.0749249
 augmentation part      309.1974331 magnetization      31.6860528

 Broyden mixing:
  rms(total) = 0.27168E-03    rms(broyden)= 0.27159E-03
  rms(prec ) = 0.30617E-03
  weight for this iteration     100.00

 eigenvalues of (default mixing * dielectric matrix)
  average eigenvalue GAMMA=   1.2092
  2.4225  2.4225  2.2877  1.3979  1.3979  0.9744  0.9744  0.9439  0.9439  0.6784
  0.6784  0.5591  0.6244  0.6244

 Free energy of the ion-electron system (eV)
  ---------------------------------------------------
  alpha Z        PSCENC =      5405.26752916
  Ewald energy   TEWEN  =   -103786.92559499
  -Hartree energ DENC   =    -47795.50345521
  -exchange      EXHF   =         0.00000000
  -V(xc)+E(xc)   XCENC  =      5139.38893153
  PAW double counting   =    140794.50445948  -146862.51671028
  entropy T*S    EENTRO =        -0.00015460
  eigenvalues    EBANDS =    -15693.03036842
  atomic energy  EATOM  =    162405.62235658
  Solvation  Ediel_sol  =         0.00000000
  ---------------------------------------------------
  free energy    TOTEN  =      -393.19300676 eV

  energy without entropy =     -393.19285216  energy(sigma->0) =     -393.19292946


--------------------------------------------------------------------------------------------------------




----------------------------------------- Iteration    1(  20)  ---------------------------------------


    POTLOK:  cpu time    0.9494: real time    0.9491
    SETDIJ:  cpu time    0.4095: real time    0.4094
     EDDAV:  cpu time    8.9505: real time    8.9524
       DOS:  cpu time    0.0059: real time    0.0059
    CHARGE:  cpu time    3.0609: real time    3.0602
    MIXING:  cpu time    0.0837: real time    0.0837
    --------------------------------------------
      LOOP:  cpu time   13.4606: real time   13.4613

 eigenvalue-minimisations  :  6232
 total energy-change (2. order) :-0.2317218E-05  (-0.1362313E-06)
 number of electron     768.0004406 magnetization      48.0746067
 augmentation part      309.1973807 magnetization      31.6855610

 Broyden mixing:
  rms(total) = 0.13259E-03    rms(broyden)= 0.13257E-03
  rms(prec ) = 0.14176E-03
  weight for this iteration     100.00

 eigenvalues of (default mixing * dielectric matrix)
  average eigenvalue GAMMA=   1.2044
  2.6465  2.4030  2.3912  1.3818  1.3818  0.9788  0.9788  0.9580  0.9580  0.7598
  0.7598  0.5585  0.6498  0.6498  0.6110

 Free energy of the ion-electron system (eV)
  ---------------------------------------------------
  alpha Z        PSCENC =      5405.26752916
  Ewald energy   TEWEN  =   -103786.92559499
  -Hartree energ DENC   =    -47795.51220123
  -exchange      EXHF   =         0.00000000
  -V(xc)+E(xc)   XCENC  =      5139.38852416
  PAW double counting   =    140794.58749635  -146862.58256187
  entropy T*S    EENTRO =        -0.00015460
  eigenvalues    EBANDS =    -15693.03840263
  atomic energy  EATOM  =    162405.62235658
  Solvation  Ediel_sol  =         0.00000000
  ---------------------------------------------------
  free energy    TOTEN  =      -393.19300907 eV

  energy without entropy =     -393.19285447  energy(sigma->0) =     -393.19293177


--------------------------------------------------------------------------------------------------------




----------------------------------------- Iteration    1(  21)  ---------------------------------------


    POTLOK:  cpu time    0.9530: real time    0.9526
    SETDIJ:  cpu time    0.4142: real time    0.4141
     EDDAV:  cpu time    8.8474: real time    8.8513
       DOS:  cpu time    0.0060: real time    0.0060
    --------------------------------------------
      LOOP:  cpu time   10.2210: real time   10.2243

 eigenvalue-minimisations  :  6080
 total energy-change (2. order) :-0.3935420E-06  (-0.7616480E-07)
 number of electron     768.0004406 magnetization      48.0746067
 augmentation part      309.1973807 magnetization      31.6855610

 Free energy of the ion-electron system (eV)
  ---------------------------------------------------
  alpha Z        PSCENC =      5405.26752916
  Ewald energy   TEWEN  =   -103786.92559499
  -Hartree energ DENC   =    -47795.51823211
  -exchange      EXHF   =         0.00000000
  -V(xc)+E(xc)   XCENC  =      5139.38850023
  PAW double counting   =    140794.59523065  -146862.58930000
[...]
   0.102E-11 0.365E-12 0.158E-10   0.782E-13 0.121E-12 0.639E-13   0.794E-22 0.744E-23 -.177E-21   -.177E-12 0.148E-12 -.118E-11
   0.937E-12 0.495E-12 0.113E-11   -.355E-13 0.135E-12 0.128E-12   -.103E-21 0.811E-22 0.132E-21   -.110E-12 -.513E-13 -.395E-12
   0.983E-12 -.224E-12 0.157E-11   0.284E-13 0.142E-13 0.639E-13   -.132E-22 -.546E-22 -.562E-22   -.911E-13 0.217E-13 -.105E-11
   0.990E-12 -.906E-11 0.944E-11   -.711E-13 0.142E-13 0.128E-12   0.000E+00 0.678E-22 0.281E-22   -.182E-12 0.229E-12 -.390E-12
   0.154E-11 0.565E-12 -.454E-11   -.995E-13 0.114E-12 0.639E-13   -.114E-21 0.381E-22 0.207E-24   0.123E-11 -.183E-12 -.272E-12
   0.162E-11 0.463E-12 -.541E-10   -.142E-13 0.114E-12 0.128E-12   0.199E-21 0.102E-21 -.203E-22   0.122E-11 0.836E-13 -.202E-12
   0.157E-11 -.958E-11 -.845E-11   -.711E-13 0.142E-12 0.711E-14   0.662E-22 0.281E-22 -.248E-22   0.109E-11 0.394E-12 -.563E-12
   0.153E-11 0.125E-10 -.779E-11   0.995E-13 0.142E-12 0.128E-12   -.926E-22 -.653E-22 0.995E-22   0.123E-11 0.140E-12 0.155E-12
   0.966E-12 0.719E-11 -.255E-11   0.115E-12 0.349E-12 0.643E-13   0.265E-22 0.170E-22 -.248E-22   -.126E-12 0.773E-12 0.208E-11
   0.983E-12 -.653E-11 -.461E-11   0.355E-13 0.349E-12 0.125E-12   -.195E-22 -.463E-22 0.131E-21   -.104E-13 0.829E-12 -.121E-11
   0.980E-12 -.622E-11 -.307E-11   -.355E-13 0.360E-12 0.643E-13   -.232E-22 0.160E-21 0.606E-22   -.439E-13 -.215E-12 0.189E-11
   0.850E-12 0.163E-12 -.115E-10   -.114E-12 0.374E-12 0.182E-12   -.132E-22 0.248E-22 0.414E-22   0.176E-12 -.274E-12 -.107E-11
   0.155E-11 0.579E-11 0.167E-10   -.426E-13 0.363E-12 0.121E-12   -.728E-22 -.331E-22 -.518E-22   0.131E-11 0.834E-12 0.191E-11
   0.154E-11 0.917E-12 -.191E-10   -.853E-13 0.349E-12 0.125E-12   0.728E-22 0.794E-22 -.397E-22   0.122E-11 0.554E-12 -.332E-12
   0.157E-11 -.361E-10 0.132E-10   -.142E-13 0.396E-12 0.643E-13   0.235E-21 -.199E-22 0.248E-22   0.110E-11 -.476E-12 0.225E-11
   0.165E-11 0.246E-11 0.254E-11   0.284E-12 0.310E-12 0.680E-13   0.141E-22 -.600E-23 0.678E-22   0.889E-12 -.137E-12 -.511E-12
   0.128E-12 0.275E-12 -.340E-12   -.160E-13 -.346E-13 -.654E-14   0.232E-22 0.234E-22 -.149E-22   -.288E-12 -.114E-13 0.890E-12
   0.976E-13 0.298E-12 -.936E-11   -.853E-13 -.213E-13 0.181E-14   0.496E-23 -.136E-22 -.827E-23   -.207E-12 0.203E-13 -.393E-12
   0.114E-12 0.913E-12 -.105E-10   -.977E-13 -.533E-14 -.654E-14   0.407E-22 -.244E-22 0.496E-23   -.262E-12 0.264E-13 0.895E-12
   0.107E-12 0.984E-12 0.621E-12   -.853E-13 -.213E-13 0.181E-14   -.910E-23 0.157E-22 0.149E-22   -.223E-12 -.965E-14 -.392E-12
   0.450E-12 0.337E-12 0.216E-11   -.577E-13 -.204E-13 0.145E-14   0.406E-22 -.302E-22 0.910E-23   0.447E-12 -.101E-12 0.764E-12
   0.481E-12 0.309E-12 -.145E-11   -.711E-13 -.711E-14 0.270E-14   -.267E-22 -.993E-23 0.496E-23   0.370E-12 -.272E-13 -.332E-12
   0.449E-12 -.104E-11 0.130E-10   -.888E-15 -.533E-14 0.566E-15   0.108E-22 0.199E-22 -.744E-23   0.404E-12 0.102E-12 0.750E-12
   0.451E-12 0.501E-11 -.104E-11   -.142E-13 -.711E-14 0.181E-14   0.000E+00 -.248E-22 -.496E-23   0.367E-12 0.264E-13 -.281E-12
   0.143E-12 -.183E-11 0.976E-12   -.524E-13 0.891E-14 0.000E+00   0.455E-23 0.141E-22 0.496E-23   -.280E-12 0.125E-12 -.310E-12
   0.962E-13 0.391E-11 0.237E-11   -.240E-13 -.497E-13 0.000E+00   0.323E-22 0.372E-23 -.470E-23   -.252E-12 0.123E-12 0.196E-12
   0.992E-13 0.424E-11 0.255E-11   -.355E-13 0.927E-14 0.000E+00   -.744E-23 -.993E-23 0.716E-22   -.197E-12 -.186E-12 -.340E-12
   0.120E-12 -.814E-12 0.225E-11   -.107E-12 0.839E-14 0.000E+00   0.110E-22 -.178E-22 -.827E-24   -.256E-12 -.190E-12 0.246E-12
   0.424E-12 0.483E-11 -.127E-11   -.231E-13 -.337E-13 0.888E-15   -.215E-22 0.232E-22 0.951E-23   0.438E-12 0.157E-12 -.246E-12
   0.470E-12 0.159E-10 -.823E-11   0.533E-14 -.497E-13 0.888E-15   -.163E-22 0.116E-22 -.451E-22   0.416E-12 0.192E-12 0.129E-12
   0.472E-12 -.812E-11 0.117E-10   -.497E-13 0.927E-14 0.000E+00   0.207E-22 -.124E-22 0.558E-23   0.349E-12 -.201E-12 -.355E-12
   0.452E-12 0.159E-11 -.448E-11   0.213E-13 0.226E-13 0.000E+00   -.414E-24 -.298E-22 -.579E-23   0.412E-12 -.233E-12 0.151E-12
   0.255E-12 0.274E-12 0.174E-12   0.959E-13 -.364E-13 -.133E-13   0.227E-22 -.360E-22 -.215E-22   0.371E-12 0.374E-13 -.290E-12
   0.234E-12 0.323E-12 0.409E-12   0.112E-12 -.364E-13 -.622E-14   0.199E-22 -.298E-22 -.558E-22   0.270E-12 -.192E-13 0.189E-12
   0.202E-12 0.185E-12 0.139E-12   0.709E-13 -.213E-13 -.133E-13   -.149E-22 -.414E-23 0.161E-22   0.340E-12 -.509E-13 -.309E-12
   0.254E-12 -.128E-12 -.153E-12   0.169E-12 -.355E-13 -.622E-14   -.314E-22 0.286E-22 -.387E-22   0.210E-12 -.559E-15 0.220E-12
   0.407E-13 0.326E-12 0.190E-10   0.144E-12 -.355E-13 -.142E-13   -.345E-22 0.161E-22 0.600E-22   -.573E-12 -.678E-13 -.230E-12
   0.606E-13 0.305E-12 0.323E-11   0.101E-12 -.355E-13 -.711E-14   0.620E-23 0.165E-23 0.157E-22   -.470E-12 -.178E-13 0.112E-12
   0.101E-12 0.488E-11 0.829E-11   0.115E-12 -.711E-14 -.142E-13   0.476E-23 -.372E-23 0.201E-22   -.527E-12 0.464E-13 -.317E-12
   0.510E-13 0.571E-11 0.497E-11   0.100E-12 -.711E-14 -.711E-14   0.240E-22 0.281E-22 -.380E-22   -.400E-12 0.235E-14 0.133E-12
   0.202E-12 0.852E-13 0.379E-12   0.798E-13 -.627E-14 -.156E-13   0.157E-22 -.993E-23 -.480E-22   0.379E-12 0.137E-12 0.851E-12
   0.226E-12 0.639E-13 0.297E-12   0.108E-12 -.205E-13 -.839E-14   -.281E-22 0.910E-23 -.724E-24   0.305E-12 0.114E-12 -.376E-12
   0.260E-12 0.320E-12 0.427E-12   0.105E-12 0.762E-14 -.151E-13   0.203E-22 0.248E-22 -.248E-23   0.306E-12 -.207E-12 0.803E-12
   0.240E-12 -.226E-12 -.139E-13   0.771E-13 0.756E-14 -.795E-14   0.331E-23 -.199E-22 0.414E-23   0.269E-12 -.182E-12 -.328E-12
   0.942E-13 0.181E-10 -.118E-10   0.139E-12 0.671E-14 -.143E-13   -.132E-22 0.142E-22 0.219E-22   -.564E-12 0.185E-12 0.808E-12
   0.713E-13 0.739E-11 0.831E-11   0.167E-12 -.218E-13 -.715E-14   0.374E-22 0.281E-22 -.269E-22   -.493E-12 0.115E-12 -.360E-12
   0.439E-13 0.262E-11 -.120E-10   0.165E-12 -.693E-14 -.139E-13   -.693E-23 -.175E-22 0.732E-22   -.482E-12 -.214E-12 0.861E-12
   0.678E-13 0.547E-11 0.429E-11   0.941E-13 0.722E-14 -.671E-14   0.182E-22 -.251E-22 0.300E-22   -.452E-12 -.148E-12 -.378E-12
 -----------------------------------------------------------------------------------------------
   0.316E-10 0.105E-09 -.624E-10   -.239E-13 0.223E-12 0.233E-12   0.888E-21 0.479E-21 0.236E-21   0.231E-11 0.490E-11 0.529E-11
 
 
 POSITION                                       TOTAL-FORCE (eV/Angst)
 -----------------------------------------------------------------------------------
      0.00000      0.00000      0.00000         0.000000     -0.000000     -0.000000
      0.00000      0.00000      4.18658         0.000000     -0.000000      0.000000
      0.00000      4.18658      0.00000         0.000000      0.000000     -0.000000
      0.00000      4.18658      4.18658         0.000000     -0.000000      0.000000
      4.18658      0.00000      0.00000         0.000000      0.000000     -0.000000
      4.18658      0.00000      4.18658         0.000000     -0.000000     -0.000000
      4.18658      4.18658      0.00000        -0.000000      0.000000      0.000000
      4.18658      4.18658      4.18658        -0.000000      0.000000     -0.000000
      0.00000      2.09329      2.09329         0.000000     -0.000000      0.000000
      0.00000      2.09329      6.27987        -0.000000     -0.000000     -0.000000
      0.00000      6.27987      2.09329        -0.000000     -0.000000     -0.000000
      0.00000      6.27987      6.27987        -0.000000      0.000000     -0.000000
      4.18658      2.09329      2.09329        -0.000000     -0.000000     -0.000000
      4.18658      2.09329      6.27987        -0.000000      0.000000      0.000000
      4.18658      6.27987      2.09329        -0.000000      0.000000      0.000000
      4.18658      6.27987      6.27987        -0.000000      0.000000     -0.000000
      2.09329      0.00000      2.09329        -0.000000     -0.000000     -0.000000
      2.09329      0.00000      6.27987         0.000000      0.000000      0.000000
      2.09329      4.18658      2.09329        -0.000000     -0.000000      0.000000
      2.09329      4.18658      6.27987         0.000000     -0.000000     -0.000000
      6.27987      0.00000      2.09329        -0.000000     -0.000000      0.000000
      6.27987      0.00000      6.27987         0.000000      0.000000      0.000000
      6.27987      4.18658      2.09329        -0.000000     -0.000000     -0.000000
      6.27987      4.18658      6.27987         0.000000      0.000000      0.000000
      2.09329      2.09329      0.00000        -0.000000      0.000000     -0.000000
      2.09329      2.09329      4.18658         0.000000     -0.000000      0.000000
      2.09329      6.27987      0.00000        -0.000000      0.000000     -0.000000
      2.09329      6.27987      4.18658         0.000000     -0.000000     -0.000000
      6.27987      2.09329      0.00000         0.000000     -0.000000     -0.000000
      6.27987      2.09329      4.18658        -0.000000      0.000000     -0.000000
      6.27987      6.27987      0.00000        -0.000000      0.000000     -0.000000
      6.27987      6.27987      4.18658        -0.000000     -0.000000      0.000000
      2.09329      0.00000      0.00000        -0.000000     -0.000000      0.000000
      2.09329      0.00000      4.18658         0.000000     -0.000000      0.000000
      2.09329      4.18658      0.00000         0.000000      0.000000      0.000000
      2.09329      4.18658      4.18658        -0.000000      0.000000     -0.000000
      6.27987      0.00000      0.00000         0.000000      0.000000     -0.000000
      6.27987      0.00000      4.18658         0.000000      0.000000      0.000000
      6.27987      4.18658      0.00000         0.000000      0.000000     -0.000000
      6.27987      4.18658      4.18658         0.000000      0.000000      0.000000
      2.09329      2.09329      2.09329        -0.000000     -0.000000     -0.000000
      2.09329      2.09329      6.27987        -0.000000     -0.000000      0.000000
      2.09329      6.27987      2.09329         0.000000     -0.000000     -0.000000
      2.09329      6.27987      6.27987         0.000000      0.000000      0.000000
      6.27987      2.09329      2.09329         0.000000     -0.000000     -0.000000
      6.27987      2.09329      6.27987        -0.000000      0.000000      0.000000
      6.27987      6.27987      2.09329        -0.000000      0.000000     -0.000000
      6.27987      6.27987      6.27987        -0.000000      0.000000      0.000000
      0.00000      0.00000      2.09329        -0.000000     -0.000000     -0.000000
      0.00000      0.00000      6.27987         0.000000      0.000000      0.000000
      0.00000      4.18658      2.09329         0.000000     -0.000000     -0.000000
      0.00000      4.18658      6.27987         0.000000      0.000000      0.000000
      4.18658      0.00000      2.09329         0.000000     -0.000000      0.000000
      4.18658      0.00000      6.27987         0.000000      0.000000      0.000000
      4.18658      4.18658      2.09329         0.000000     -0.000000     -0.000000
      4.18658      4.18658      6.27987         0.000000      0.000000      0.000000
      0.00000      2.09329      0.00000         0.000000      0.000000      0.000000
      0.00000      2.09329      4.18658         0.000000      0.000000      0.000000
      0.00000      6.27987      0.00000        -0.000000      0.000000      0.000000
      0.00000      6.27987      4.18658        -0.000000      0.000000      0.000000
      4.18658      2.09329      0.00000         0.000000     -0.000000     -0.000000
      4.18658      2.09329      4.18658        -0.000000     -0.000000      0.000000
      4.18658      6.27987      0.00000         0.000000      0.000000      0.000000
      4.18658      6.27987      4.18658         0.000000      0.000000      0.000000
 -----------------------------------------------------------------------------------
    total drift:                                0.000000      0.000000     -0.000000


--------------------------------------------------------------------------------------------------------



  FREE ENERGIE OF THE ION-ELECTRON SYSTEM (eV)
  ---------------------------------------------------
  free  energy   TOTEN  =      -393.19300947 eV

  energy  without entropy=     -393.19285487  energy(sigma->0) =     -393.19293217
 


--------------------------------------------------------------------------------------------------------


    POTLOK:  cpu time    1.3572: real time    1.3567


--------------------------------------------------------------------------------------------------------


 writing wavefunctions
     LOOP+:  cpu time  389.3786: real time  389.4496
    4ORBIT:  cpu time    0.0000: real time    0.0000
 


 total charge     
 
# of ion       s       p       d       f       tot
--------------------------------------------------
    1        2.150   6.213   7.814   0.009  16.186
    2        2.150   6.213   7.814   0.009  16.186
    3        2.150   6.213   7.814   0.009  16.186
    4        2.150   6.213   7.814   0.009  16.186
    5        2.150   6.213   7.814   0.009  16.186
    6        2.150   6.213   7.814   0.009  16.186
    7        2.150   6.213   7.814   0.009  16.186
    8        2.150   6.213   7.814   0.009  16.186
    9        2.150   6.213   7.814   0.009  16.186
   10        2.150   6.213   7.814   0.009  16.186
   11        2.150   6.213   7.814   0.009  16.186
   12        2.150   6.213   7.814   0.009  16.186
   13        2.150   6.213   7.814   0.009  16.186
   14        2.150   6.213   7.814   0.009  16.186
   15        2.150   6.213   7.814   0.009  16.186
   16        2.150   6.213   7.814   0.009  16.186
   17        2.150   6.213   7.814   0.009  16.186
   18        2.150   6.213   7.814   0.009  16.186
   19        2.150   6.213   7.814   0.009  16.186
   20        2.150   6.213   7.814   0.009  16.186
   21        2.150   6.213   7.814   0.009  16.186
   22        2.150   6.213   7.814   0.009  16.186
   23        2.150   6.213   7.814   0.009  16.186
   24        2.150   6.213   7.814   0.009  16.186
   25        2.150   6.213   7.814   0.009  16.186
   26        2.150   6.213   7.814   0.009  16.186
   27        2.150   6.213   7.814   0.009  16.186
   28        2.150   6.213   7.814   0.009  16.186
   29        2.150   6.213   7.814   0.009  16.186
   30        2.150   6.213   7.814   0.009  16.186
   31        2.150   6.213   7.814   0.009  16.186
   32        2.150   6.213   7.814   0.009  16.186
   33        1.625   3.542   0.019   0.000   5.186
   34        1.625   3.542   0.019   0.000   5.186
   35        1.625   3.542   0.019   0.000   5.186
   36        1.625   3.542   0.019   0.000   5.186
   37        1.625   3.542   0.019   0.000   5.186
   38        1.625   3.542   0.019   0.000   5.186
   39        1.625   3.542   0.019   0.000   5.186
   40        1.625   3.542   0.019   0.000   5.186
   41        1.625   3.542   0.019   0.000   5.186
   42        1.625   3.542   0.019   0.000   5.186
   43        1.625   3.542   0.019   0.000   5.186
   44        1.625   3.542   0.019   0.000   5.186
   45        1.625   3.542   0.019   0.000   5.186
   46        1.625   3.542   0.019   0.000   5.186
   47        1.625   3.542   0.019   0.000   5.186
   48        1.625   3.542   0.019   0.000   5.186
   49        1.625   3.542   0.019   0.000   5.186
   50        1.625   3.542   0.019   0.000   5.186
   51        1.625   3.542   0.019   0.000   5.186
   52        1.625   3.542   0.019   0.000   5.186
   53        1.625   3.542   0.019   0.000   5.186
   54        1.625   3.542   0.019   0.000   5.186
   55        1.625   3.542   0.019   0.000   5.186
   56        1.625   3.542   0.019   0.000   5.186
   57        1.625   3.542   0.019   0.000   5.186
   58        1.625   3.542   0.019   0.000   5.186
   59        1.625   3.542   0.019   0.000   5.186
   60        1.625   3.542   0.019   0.000   5.186
   61        1.625   3.542   0.019   0.000   5.186
   62        1.625   3.542   0.019   0.000   5.186
   63        1.625   3.542   0.019   0.000   5.186
   64        1.625   3.542   0.019   0.000   5.186
--------------------------------------------------
tot        120.786 312.167 250.644   0.289 683.886

 


 magnetization (x)
 
# of ion       s       p       d       f       tot
--------------------------------------------------
    1        0.007   0.011   1.227   0.001   1.246
    2        0.007   0.011   1.227   0.001   1.246
    3        0.007   0.011   1.227   0.001   1.246
    4        0.007   0.011   1.227   0.001   1.246
    5        0.007   0.011   1.227   0.001   1.246
    6        0.007   0.011   1.227   0.001   1.246
    7        0.007   0.011   1.227   0.001   1.246
    8        0.007   0.011   1.227   0.001   1.246
    9        0.007   0.011   1.227   0.001   1.246
   10        0.007   0.011   1.227   0.001   1.246
   11        0.007   0.011   1.227   0.001   1.246
   12        0.007   0.011   1.227   0.001   1.246
   13        0.007   0.011   1.227   0.001   1.246
   14        0.007   0.011   1.227   0.001   1.246
   15        0.007   0.011   1.227   0.001   1.246
   16        0.007   0.011   1.227   0.001   1.246
   17        0.007   0.011   1.227   0.001   1.246
   18        0.007   0.011   1.227   0.001   1.246
   19        0.007   0.011   1.227   0.001   1.246
   20        0.007   0.011   1.227   0.001   1.246
   21        0.007   0.011   1.227   0.001   1.246
   22        0.007   0.011   1.227   0.001   1.246
   23        0.007   0.011   1.227   0.001   1.246
   24        0.007   0.011   1.227   0.001   1.246
   25        0.007   0.011   1.227   0.001   1.246
   26        0.007   0.011   1.227   0.001   1.246
   27        0.007   0.011   1.227   0.001   1.246
   28        0.007   0.011   1.227   0.001   1.246
   29        0.007   0.011   1.227   0.001   1.246
   30        0.007   0.011   1.227   0.001   1.246
   31        0.007   0.011   1.227   0.001   1.246
   32        0.007   0.011   1.227   0.001   1.246
   33        0.025   0.203   0.003   0.000   0.231
   34        0.025   0.203   0.003   0.000   0.231
   35        0.025   0.203   0.003   0.000   0.231
   36        0.025   0.203   0.003   0.000   0.231
   37        0.025   0.203   0.003   0.000   0.231
   38        0.025   0.203   0.003   0.000   0.231
   39        0.025   0.203   0.003   0.000   0.231
   40        0.025   0.203   0.003   0.000   0.231
   41        0.025   0.204   0.003   0.000   0.231
   42        0.025   0.204   0.003   0.000   0.231
   43        0.025   0.204   0.003   0.000   0.231
   44        0.025   0.204   0.003   0.000   0.231
   45        0.025   0.204   0.003   0.000   0.231
   46        0.025   0.204   0.003   0.000   0.231
   47        0.025   0.204   0.003   0.000   0.231
   48        0.025   0.204   0.003   0.000   0.231
   49        0.025   0.203   0.003   0.000   0.231
   50        0.025   0.203   0.003   0.000   0.231
   51        0.025   0.203   0.003   0.000   0.231
   52        0.025   0.203   0.003   0.000   0.231
   53        0.025   0.203   0.003   0.000   0.231
   54        0.025   0.203   0.003   0.000   0.231
   55        0.025   0.203   0.003   0.000   0.231
   56        0.025   0.203   0.003   0.000   0.231
   57        0.025   0.203   0.003   0.000   0.231
   58        0.025   0.203   0.003   0.000   0.231
   59        0.025   0.203   0.003   0.000   0.231
   60        0.025   0.203   0.003   0.000   0.231
   61        0.025   0.203   0.003   0.000   0.231
   62        0.025   0.203   0.003   0.000   0.231
   63        0.025   0.203   0.003   0.000   0.231
   64        0.025   0.203   0.003   0.000   0.231
--------------------------------------------------
tot          1.027   6.868  39.334   0.025  47.255

 
