       N       E                     dE             d eps       ncg     rms          rms(c)
DAV:   1     0.337119455881E+05    0.33712E+05   -0.23293E+05 12852   0.676E+03
DAV:   2     0.134970591796E+05   -0.20215E+05   -0.18071E+05 13560   0.252E+03
DAV:   3     0.411526858338E+04   -0.93818E+04   -0.88822E+04 16048   0.127E+03
DAV:   4     0.878070447501E+03   -0.32372E+04   -0.30343E+04 20392   0.107E+03
DAV:   5     0.766252095057E+01   -0.87041E+03   -0.78125E+03 21448   0.700E+02    0.136E+02
DAV:   6    -0.349539709946E+03   -0.35720E+03   -0.38937E+03 20964   0.746E+02    0.770E+01
DAV:   7    -0.395033921544E+03   -0.45494E+02   -0.20488E+03 18840   0.475E+02    0.570E+01
DAV:   8    -0.405021975309E+03   -0.99881E+01   -0.40171E+02 20352   0.169E+02    0.419E+01
DAV:   9    -0.394209084192E+03    0.10813E+02   -0.75478E+01 19592   0.680E+01    0.262E+01
DAV:  10    -0.393981627085E+03    0.22746E+00   -0.15843E+01 20368   0.361E+01    0.195E+01
DAV:  11    -0.393083242159E+03    0.89838E+00   -0.68471E+00 22040   0.200E+01    0.101E+01
DAV:  12    -0.393050265279E+03    0.32977E-01   -0.90138E-01 19624   0.104E+01    0.829E+00
DAV:  13    -0.392997990471E+03    0.52275E-01   -0.79676E-01 21296   0.715E+00    0.364E+00
DAV:  14    -0.392998840977E+03   -0.85051E-03   -0.14432E-01 18456   0.440E+00    0.203E+00
DAV:  15    -0.393001702165E+03   -0.28612E-02   -0.22741E-02 20504   0.141E+00    0.111E+00
DAV:  16    -0.392999857490E+03    0.18447E-02   -0.54159E-03 19624   0.105E+00    0.693E-01
DAV:  17    -0.392999364494E+03    0.49300E-03   -0.15045E-03 21984   0.302E-01    0.449E-01
DAV:  18    -0.392999250528E+03    0.11397E-03   -0.58622E-04 20896   0.295E-01    0.251E-01
DAV:  19    -0.392999240772E+03    0.97559E-05   -0.11496E-04 20200   0.106E-01    0.151E-01
DAV:  20    -0.392999301635E+03   -0.60864E-04   -0.44379E-05 17368   0.108E-01    0.954E-02
DAV:  21    -0.392999243456E+03    0.58180E-04   -0.20994E-05 14432   0.102E-01    0.672E-02
DAV:  22    -0.392999192446E+03    0.51009E-04   -0.15856E-04 17400   0.119E-01    0.190E-02
DAV:  23    -0.392999201869E+03   -0.94230E-05   -0.84920E-05 16040   0.546E-02    0.775E-03
DAV:  24    -0.392999201036E+03    0.83313E-06   -0.19576E-06  7808   0.196E-02
   1 F= -.39299920E+03 E0= -.39299920E+03  d E =-.921799E-25  mag=     0.0000
