       N       E                     dE             d eps       ncg     rms          rms(c)
DAV:   1     0.337186963255E+05    0.33719E+05   -0.23334E+05 12796   0.683E+03
DAV:   2     0.134268472091E+05   -0.20292E+05   -0.18134E+05 13496   0.253E+03
DAV:   3     0.404623583252E+04   -0.93806E+04   -0.88960E+04 16080   0.126E+03
DAV:   4     0.834017540513E+03   -0.32122E+04   -0.30134E+04 20484   0.106E+03
DAV:   5    -0.172276115899E+02   -0.85125E+03   -0.76720E+03 21472   0.690E+02    0.138E+02
DAV:   6    -0.365629370702E+03   -0.34840E+03   -0.39766E+03 20860   0.855E+02    0.831E+01
DAV:   7    -0.406121478202E+03   -0.40492E+02   -0.22386E+03 18832   0.485E+02    0.666E+01
DAV:   8    -0.419986003516E+03   -0.13865E+02   -0.41959E+02 20472   0.176E+02    0.621E+01
DAV:   9    -0.422251203338E+03   -0.22652E+01   -0.69394E+01 18496   0.754E+01    0.571E+01
DAV:  10    -0.403283756889E+03    0.18967E+02   -0.46645E+01 22064   0.771E+01    0.225E+01
DAV:  11    -0.398352865133E+03    0.49309E+01   -0.31920E+01 22080   0.559E+01    0.246E+01
DAV:  12    -0.400802010214E+03   -0.24491E+01   -0.56763E+00 20800   0.381E+01    0.151E+01
DAV:  13    -0.401392254547E+03   -0.59024E+00   -0.13575E+00 21480   0.107E+01    0.126E+01
DAV:  14    -0.401505837333E+03   -0.11358E+00   -0.50911E-01 20568   0.119E+01    0.798E+00
DAV:  15    -0.401450591404E+03    0.55246E-01   -0.18356E-01 17880   0.758E+00    0.559E+00
DAV:  16    -0.401379406908E+03    0.71184E-01   -0.24714E-01 21400   0.615E+00    0.211E+00
DAV:  17    -0.401386665877E+03   -0.72590E-02   -0.52292E-02 21632   0.379E+00    0.131E+00
DAV:  18    -0.401386056615E+03    0.60926E-03   -0.88673E-03 16576   0.183E+00    0.710E-01
DAV:  19    -0.401387986240E+03   -0.19296E-02   -0.11730E-02 20784   0.143E+00    0.358E-01
DAV:  20    -0.401387735029E+03    0.25121E-03   -0.21272E-03 19144   0.546E-01    0.340E-01
DAV:  21    -0.401387328636E+03    0.40639E-03   -0.48897E-04 19112   0.214E-01    0.198E-01
DAV:  22    -0.401387353587E+03   -0.24951E-04   -0.22923E-04 16696   0.178E-01    0.138E-01
DAV:  23    -0.401387264552E+03    0.89035E-04   -0.11487E-04 16400   0.140E-01    0.799E-02
DAV:  24    -0.401387216736E+03    0.47815E-04   -0.25885E-04 16992   0.148E-01    0.410E-02
DAV:  25    -0.401387229859E+03   -0.13123E-04   -0.74973E-05 15944   0.795E-02    0.136E-02
DAV:  26    -0.401387230818E+03   -0.95885E-06   -0.48146E-06  9784   0.254E-02
   1 F= -.40138723E+03 E0= -.40138723E+03  d E =-.457064-184  mag=    -0.0000
