       N       E                     dE             d eps       ncg     rms          rms(c)
DAV:   1     0.323434652971E+05    0.32343E+05   -0.22244E+05  9232   0.639E+03
DAV:   2     0.123117497339E+05   -0.20032E+05   -0.17620E+05  9472   0.223E+03
DAV:   3     0.320233892443E+04   -0.91094E+04   -0.85445E+04 11440   0.110E+03
DAV:   4     0.483059168754E+03   -0.27193E+04   -0.25249E+04 14880   0.900E+02
DAV:   5    -0.137894744873E+03   -0.62095E+03   -0.54450E+03 15264   0.566E+02    0.107E+02
DAV:   6    -0.396923414877E+03   -0.25903E+03   -0.25220E+03 14872   0.551E+02    0.772E+01
DAV:   7    -0.392626009942E+03    0.42974E+01   -0.10214E+03 13320   0.357E+02    0.501E+01
DAV:   8    -0.403725396698E+03   -0.11099E+02   -0.21811E+02 14752   0.116E+02    0.429E+01
DAV:   9    -0.400052189769E+03    0.36732E+01   -0.31638E+01 14584   0.419E+01    0.348E+01
DAV:  10    -0.393097827395E+03    0.69544E+01   -0.14220E+01 15560   0.296E+01    0.125E+01
DAV:  11    -0.392829411519E+03    0.26842E+00   -0.41135E+00 14560   0.176E+01    0.107E+01
DAV:  12    -0.392994514829E+03   -0.16510E+00   -0.71750E-01 13984   0.836E+00    0.832E+00
DAV:  13    -0.392990220919E+03    0.42939E-02   -0.15373E-01 13760   0.333E+00    0.658E+00
DAV:  14    -0.392951915345E+03    0.38306E-01   -0.17888E-01 13392   0.770E+00    0.671E+00
DAV:  15    -0.393071355481E+03   -0.11944E+00   -0.14701E-01 14256   0.622E+00    0.380E+00
DAV:  16    -0.393119879416E+03   -0.48524E-01   -0.71632E-02 15384   0.266E+00    0.248E+00
DAV:  17    -0.393150985978E+03   -0.31107E-01   -0.16139E-02 15160   0.157E+00    0.226E+00
DAV:  18    -0.393181536273E+03   -0.30550E-01   -0.84666E-03 14904   0.125E+00    0.168E+00
DAV:  19    -0.393191793635E+03   -0.10257E-01   -0.25692E-02 14848   0.258E+00    0.532E-01
DAV:  20    -0.393192716779E+03   -0.92314E-03   -0.73337E-03 14992   0.635E-01    0.361E-01
DAV:  21    -0.393191445109E+03    0.12717E-02   -0.37382E-03 13952   0.881E-01    0.523E-01
DAV:  22    -0.393192907900E+03   -0.14628E-02   -0.11921E-03 13904   0.614E-01    0.308E-01
DAV:  23    -0.393192606773E+03    0.30113E-03   -0.16916E-04 12352   0.235E-01    0.414E-01
DAV:  24    -0.393192971749E+03   -0.36498E-03   -0.88423E-04 14808   0.424E-01    0.645E-02
DAV:  25    -0.393192975411E+03   -0.36615E-05   -0.32739E-04 14672   0.120E-01    0.131E-01
DAV:  26    -0.393192952476E+03    0.22935E-04   -0.18808E-05 10120   0.486E-02    0.149E-01
DAV:  27    -0.393193000601E+03   -0.48124E-04   -0.17768E-05  8968   0.886E-02    0.560E-02
DAV:  28    -0.393193009439E+03   -0.88389E-05   -0.70290E-05 11752   0.849E-02    0.303E-02
DAV:  29    -0.393193010232E+03   -0.79293E-06   -0.11131E-05  9000   0.509E-02    0.936E-03
DAV:  30    -0.393193010891E+03   -0.65847E-06   -0.28797E-06  5984   0.129E-02
   1 F= -.39319301E+03 E0= -.39319293E+03  d E =-.154600E-03  mag=    48.0780
