 vasp.5.4.4.18Apr17-6-g9f103f2a35 (build Oct 10 2019 09:51:33) complex          
  
 executed on   carbon_intel19_gpu date 2020.09.25  17:24:33
 running on    1 total cores
 distrk:  each k-point on    1 cores,    1 groups
 distr:  one band on NCORES_PER_BAND=   1 cores,    1 groups


--------------------------------------------------------------------------------------------------------


 INCAR:
 POTCAR:    PAW_PBE Ni_sv_GW 05Dec2013            
 POTCAR:    PAW_PBE O_GW 19Mar2012                
 POTCAR:    PAW_PBE Ni_sv_GW 05Dec2013            
   VRHFIN =Ni:                                                                  
   LEXCH  = PE                                                                  
   EATOM  =  4642.8712 eV,  341.2414 Ry                                         
                                                                                
   TITEL  = PAW_PBE Ni_sv_GW 05Dec2013                                          
   LULTRA =        F    use ultrasoft PP ?                                      
   IUNSCR =        1    unscreen: 0-lin 1-nonlin 2-no                           
   RPACOR =    1.400    partial core radius                                     
   POMASS =   58.690; ZVAL   =   18.000    mass and valenz                      
   RCORE  =    1.900    outmost cutoff radius                                   
   RWIGS  =    2.100; RWIGS  =    1.111    wigner-seitz radius (au A)           
   ENMAX  =  389.645; ENMIN  =  292.234 eV                                      
   RCLOC  =    1.301    cutoff for local pot                                    
   LCOR   =        T    correct aug charges                                     
   LPAW   =        T    paw PP                                                  
   EAUG   = 1036.387                                                            
   RMAX   =    1.945    core radius for proj-oper                               
   RAUG   =    1.300    factor for augmentation sphere                          
   RDEP   =    1.972    radius for radial grids                                 
   RDEPT  =    1.600    core radius for aug-charge                              
                                                                                
   Atomic configuration                                                         
    8 entries                                                                   
     n  l   j            E        occ.                                          
     1  0  0.50     -8203.3308   2.0000                                         
     2  0  0.50      -972.7019   2.0000                                         
     2  1  1.50      -835.6236   6.0000                                         
     3  0  0.50      -102.6944   2.0000                                         
     3  1  1.50       -63.2363   6.0000                                         
     3  1  1.50       -68.0291   0.0000                                         
     3  2  2.50        -1.9692  10.0000                                         
     4  3  2.50        -1.3606   0.0000                                         
   Description                                                                  
     l       E           TYP  RCUT    TYP  RCUT                                 
     0   -102.6944069     23  1.400                                             
     0      1.3605826     23  1.700                                             
     0    204.0873900     23  1.400                                             
     1    -63.2363356     23  1.650                                             
     1    -68.0291300     23  1.650                                             
     1    136.0582600     23  1.650                                             
     2     -1.9691936     23  1.900                                             
     2     27.2116520     23  1.900                                             
     2    136.0582600     23  1.900                                             
     3     27.2116520     23  1.900                                             
     3    136.0582600     23  1.900                                             
  local pseudopotential read in
  partial core-charges read in
  partial kinetic energy density read in
  kinetic energy density of atom read in
  atomic valenz-charges read in
  non local Contribution for L=           0  read in
    real space projection operators read in
  non local Contribution for L=           0  read in
    real space projection operators read in
  non local Contribution for L=           0  read in
    real space projection operators read in
  non local Contribution for L=           1  read in
    real space projection operators read in
  non local Contribution for L=           1  read in
    real space projection operators read in
  non local Contribution for L=           1  read in
    real space projection operators read in
  non local Contribution for L=           2  read in
    real space projection operators read in
  non local Contribution for L=           2  read in
    real space projection operators read in
  non local Contribution for L=           2  read in
    real space projection operators read in
  non local Contribution for L=           3  read in
    real space projection operators read in
  non local Contribution for L=           3  read in
    real space projection operators read in
    PAW grid and wavefunctions read in
 
   number of l-projection  operators is LMAX  =          11
   number of lm-projection operators is LMMAX =          41
 
 POTCAR:    PAW_PBE O_GW 19Mar2012                
   VRHFIN =O: s2p4                                                              
   LEXCH  = PE                                                                  
   EATOM  =   432.3788 eV,   31.7789 Ry                                         
                                                                                
   TITEL  = PAW_PBE O_GW 19Mar2012                                              
   LULTRA =        F    use ultrasoft PP ?                                      
   IUNSCR =        1    unscreen: 0-lin 1-nonlin 2-no                           
   RPACOR =    0.800    partial core radius                                     
   POMASS =   16.000; ZVAL   =    6.000    mass and valenz                      
   RCORE  =    1.600    outmost cutoff radius                                   
   RWIGS  =    1.600; RWIGS  =    0.847    wigner-seitz radius (au A)           
   ENMAX  =  434.431; ENMIN  =  325.824 eV                                      
   ICORE  =        3    local potential                                         
   LCOR   =        T    correct aug charges                                     
   LPAW   =        T    paw PP                                                  
   EAUG   = 1139.609                                                            
   DEXC   =    0.000                                                            
   RMAX   =    1.629    core radius for proj-oper                               
   RAUG   =    1.300    factor for augmentation sphere                          
   RDEP   =    1.652    radius for radial grids                                 
   RDEPT  =    1.200    core radius for aug-charge                              
                                                                                
   Atomic configuration                                                         
    5 entries                                                                   
     n  l   j            E        occ.                                          
     1  0  0.50      -514.6923   2.0000                                         
     2  0  0.50       -23.9615   2.0000                                         
     2  1  0.50        -9.0305   4.0000                                         
     3  2  1.50        -9.5241   0.0000                                         
     4  3  2.50        -9.5241   0.0000                                         
   Description                                                                  
     l       E           TYP  RCUT    TYP  RCUT                                 
     0    -23.9615316     23  1.150                                             
     0    -25.3221142     23  1.150                                             
     0    244.9048680     23  1.300                                             
     1     -9.0304908     23  1.500                                             
     1     -6.9258396     23  1.500                                             
     1    122.4524340     23  1.500                                             
     2     13.6058260     23  1.500                                             
     2    190.4815640     23  1.600                                             
     3     54.4233040     23  1.400                                             
  local pseudopotential read in
  partial core-charges read in
  partial kinetic energy density read in
  kinetic energy density of atom read in
  atomic valenz-charges read in
  non local Contribution for L=           0  read in
    real space projection operators read in
  non local Contribution for L=           0  read in
    real space projection operators read in
  non local Contribution for L=           0  read in
    real space projection operators read in
  non local Contribution for L=           1  read in
    real space projection operators read in
  non local Contribution for L=           1  read in
    real space projection operators read in
  non local Contribution for L=           1  read in
    real space projection operators read in
  non local Contribution for L=           2  read in
    real space projection operators read in
  non local Contribution for L=           2  read in
    real space projection operators read in
    PAW grid and wavefunctions read in
 
   number of l-projection  operators is LMAX  =           8
   number of lm-projection operators is LMMAX =          22
 
 Optimization of the real space projectors (new method)

 maximal supplied QI-value         = 19.84
 optimisation between [QCUT,QGAM] = [ 12.50, 25.00] = [ 43.76,175.03] Ry 
 Optimized for a Real-space Cutoff    1.31 Angstroem

   l    n(q)    QCUT    max X(q) W(low)/X(q) W(high)/X(q)  e(spline) 
   0     10    12.501     2.300    0.65E-05    0.25E-06    0.79E-07
   0     10    12.501     7.576    0.25E-04    0.52E-05    0.18E-06
   0     10    12.501     1.388    0.34E-04    0.75E-05    0.48E-06
   1      9    12.501    11.002    0.11E-03    0.24E-03    0.54E-06
   1      9    12.501    14.537    0.90E-04    0.23E-03    0.70E-06
   1      9    12.501     3.893    0.34E-04    0.51E-04    0.68E-06
   2      9    12.501    14.869    0.32E-03    0.35E-03    0.49E-06
   2      9    12.501     7.291    0.12E-03    0.20E-03    0.30E-06
   2      9    12.501     6.907    0.35E-03    0.37E-03    0.52E-06
   3      8    12.501    10.598    0.33E-03    0.15E-03    0.57E-06
   3      8    12.501     2.997    0.28E-03    0.16E-03    0.51E-06
 Optimization of the real space projectors (new method)

 maximal supplied QI-value         = 23.62
 optimisation between [QCUT,QGAM] = [ 12.52, 25.04] = [ 43.89,175.56] Ry 
 Optimized for a Real-space Cutoff    1.35 Angstroem

   l    n(q)    QCUT    max X(q) W(low)/X(q) W(high)/X(q)  e(spline) 
   0     10    12.519   116.464    0.13E-03    0.15E-03    0.46E-05
   0     10    12.519   116.329    0.13E-03    0.15E-03    0.44E-05
   0     10    12.519     0.942    0.35E-04    0.90E-04    0.23E-05
   1     10    12.519   133.003    0.28E-03    0.77E-04    0.26E-05
   1     10    12.519   116.443    0.28E-03    0.76E-04    0.26E-05
   1     10    12.519     2.481    0.45E-03    0.95E-04    0.45E-05
   2      9    12.519     2.237    0.21E-04    0.33E-04    0.21E-06
   2      9    12.519     2.497    0.16E-03    0.12E-03    0.32E-06
  PAW_PBE Ni_sv_GW 05Dec2013            :
 energy of atom  1       EATOM=-4642.8712
 kinetic energy error for atom=    0.0555 (will be added to EATOM!!)
  PAW_PBE O_GW 19Mar2012                :
 energy of atom  2       EATOM= -432.3788
 kinetic energy error for atom=    0.0188 (will be added to EATOM!!)
 
 
 POSCAR: NiO                                     
  positions in direct lattice
  No initial velocities read in
 exchange correlation table for  LEXCH =        8
   RHO(1)=    0.500       N(1)  =     2000
   RHO(2)=  100.500       N(2)  =     4000
 


--------------------------------------------------------------------------------------------------------


 ion  position               nearest neighbor table
   1  0.000  0.000  0.000-  36 2.09  38 2.09  45 2.09  50 2.09  53 2.09  64 2.09
   2  0.250  0.250  0.500-  33 2.09  39 2.09  46 2.09  51 2.09  54 2.09  61 2.09
   3  0.500  0.500  0.000-  34 2.09  40 2.09  47 2.09  52 2.09  55 2.09  62 2.09
   4  0.750  0.750  0.500-  35 2.09  37 2.09  48 2.09  49 2.09  56 2.09  63 2.09
   5  0.250  0.500  0.250-  33 2.09  40 2.09  42 2.09  52 2.09  54 2.09  57 2.09
   6  0.500  0.750  0.750-  34 2.09  37 2.09  43 2.09  49 2.09  55 2.09  58 2.09
   7  0.750  0.000  0.250-  35 2.09  38 2.09  44 2.09  50 2.09  56 2.09  59 2.09
   8  0.000  0.250  0.750-  36 2.09  39 2.09  41 2.09  51 2.09  53 2.09  60 2.09
   9  0.500  0.000  0.500-  37 2.09  44 2.09  46 2.09  56 2.09  58 2.09  61 2.09
  10  0.750  0.250  0.000-  38 2.09  41 2.09  47 2.09  53 2.09  59 2.09  62 2.09
  11  0.000  0.500  0.500-  39 2.09  42 2.09  48 2.09  54 2.09  60 2.09  63 2.09
  12  0.250  0.750  0.000-  40 2.09  43 2.09  45 2.09  55 2.09  57 2.09  64 2.09
  13  0.750  0.500  0.750-  34 2.09  41 2.09  48 2.09  49 2.09  60 2.09  62 2.09
  14  0.000  0.750  0.250-  35 2.09  42 2.09  45 2.09  50 2.09  57 2.09  63 2.09
  15  0.250  0.000  0.750-  36 2.09  43 2.09  46 2.09  51 2.09  58 2.09  64 2.09
  16  0.500  0.250  0.250-  33 2.09  44 2.09  47 2.09  52 2.09  59 2.09  61 2.09
  17  0.500  0.500  0.500-  34 2.09  37 2.09  48 2.09  52 2.09  54 2.09  61 2.09
  18  0.750  0.750  0.000-  35 2.09  38 2.09  45 2.09  49 2.09  55 2.09  62 2.09
  19  0.000  0.000  0.500-  36 2.09  39 2.09  46 2.09  50 2.09  56 2.09  63 2.09
  20  0.250  0.250  0.000-  33 2.09  40 2.09  47 2.09  51 2.09  53 2.09  64 2.09
  21  0.750  0.000  0.750-  36 2.09  38 2.09  41 2.09  49 2.09  56 2.09  58 2.09
  22  0.000  0.250  0.250-  33 2.09  39 2.09  42 2.09  50 2.09  53 2.09  59 2.09
  23  0.250  0.500  0.750-  34 2.09  40 2.09  43 2.09  51 2.09  54 2.09  60 2.09
  24  0.500  0.750  0.250-  35 2.09  37 2.09  44 2.09  52 2.09  55 2.09  57 2.09
  25  0.000  0.500  0.000-  40 2.09  42 2.09  45 2.09  53 2.09  60 2.09  62 2.09
  26  0.250  0.750  0.500-  37 2.09  43 2.09  46 2.09  54 2.09  57 2.09  63 2.09
  27  0.500  0.000  0.000-  38 2.09  44 2.09  47 2.09  55 2.09  58 2.09  64 2.09
  28  0.750  0.250  0.500-  39 2.09  41 2.09  48 2.09  56 2.09  59 2.09  61 2.09
  29  0.250  0.000  0.250-  33 2.09  44 2.09  46 2.09  50 2.09  57 2.09  64 2.09
  30  0.500  0.250  0.750-  34 2.09  41 2.09  47 2.09  51 2.09  58 2.09  61 2.09
  31  0.750  0.500  0.250-  35 2.09  42 2.09  48 2.09  52 2.09  59 2.09  62 2.09
  32  0.000  0.750  0.750-  36 2.09  43 2.09  45 2.09  49 2.09  60 2.09  63 2.09
  33  0.250  0.250  0.250-   2 2.09   5 2.09  16 2.09  20 2.09  22 2.09  29 2.09
  34  0.500  0.500  0.750-   3 2.09   6 2.09  13 2.09  17 2.09  23 2.09  30 2.09
  35  0.750  0.750  0.250-   4 2.09   7 2.09  14 2.09  18 2.09  24 2.09  31 2.09
  36  0.000  0.000  0.750-   1 2.09   8 2.09  15 2.09  19 2.09  21 2.09  32 2.09
  37  0.500  0.750  0.500-   4 2.09   6 2.09   9 2.09  17 2.09  24 2.09  26 2.09
  38  0.750  0.000  0.000-   1 2.09   7 2.09  10 2.09  18 2.09  21 2.09  27 2.09
  39  0.000  0.250  0.500-   2 2.09   8 2.09  11 2.09  19 2.09  22 2.09  28 2.09
  40  0.250  0.500  0.000-   3 2.09   5 2.09  12 2.09  20 2.09  23 2.09  25 2.09
  41  0.750  0.250  0.750-   8 2.09  10 2.09  13 2.09  21 2.09  28 2.09  30 2.09
  42  0.000  0.500  0.250-   5 2.09  11 2.09  14 2.09  22 2.09  25 2.09  31 2.09
  43  0.250  0.750  0.750-   6 2.09  12 2.09  15 2.09  23 2.09  26 2.09  32 2.09
  44  0.500  0.000  0.250-   7 2.09   9 2.09  16 2.09  24 2.09  27 2.09  29 2.09
  45  0.000  0.750  0.000-   1 2.09  12 2.09  14 2.09  18 2.09  25 2.09  32 2.09
  46  0.250  0.000  0.500-   2 2.09   9 2.09  15 2.09  19 2.09  26 2.09  29 2.09
  47  0.500  0.250  0.000-   3 2.09  10 2.09  16 2.09  20 2.09  27 2.09  30 2.09
  48  0.750  0.500  0.500-   4 2.09  11 2.09  13 2.09  17 2.09  28 2.09  31 2.09
  49  0.750  0.750  0.750-   4 2.09   6 2.09  13 2.09  18 2.09  21 2.09  32 2.09
  50  0.000  0.000  0.250-   1 2.09   7 2.09  14 2.09  19 2.09  22 2.09  29 2.09
  51  0.250  0.250  0.750-   2 2.09   8 2.09  15 2.09  20 2.09  23 2.09  30 2.09
  52  0.500  0.500  0.250-   3 2.09   5 2.09  16 2.09  17 2.09  24 2.09  31 2.09
  53  0.000  0.250  0.000-   1 2.09   8 2.09  10 2.09  20 2.09  22 2.09  25 2.09
  54  0.250  0.500  0.500-   2 2.09   5 2.09  11 2.09  17 2.09  23 2.09  26 2.09
  55  0.500  0.750  0.000-   3 2.09   6 2.09  12 2.09  18 2.09  24 2.09  27 2.09
  56  0.750  0.000  0.500-   4 2.09   7 2.09   9 2.09  19 2.09  21 2.09  28 2.09
  57  0.250  0.750  0.250-   5 2.09  12 2.09  14 2.09  24 2.09  26 2.09  29 2.09
  58  0.500  0.000  0.750-   6 2.09   9 2.09  15 2.09  21 2.09  27 2.09  30 2.09
  59  0.750  0.250  0.250-   7 2.09  10 2.09  16 2.09  22 2.09  28 2.09  31 2.09
  60  0.000  0.500  0.750-   8 2.09  11 2.09  13 2.09  23 2.09  25 2.09  32 2.09
  61  0.500  0.250  0.500-   2 2.09   9 2.09  16 2.09  17 2.09  28 2.09  30 2.09
  62  0.750  0.500  0.000-   3 2.09  10 2.09  13 2.09  18 2.09  25 2.09  31 2.09
  63  0.000  0.750  0.500-   4 2.09  11 2.09  14 2.09  19 2.09  26 2.09  32 2.09
  64  0.250  0.000  0.000-   1 2.09  12 2.09  15 2.09  20 2.09  27 2.09  29 2.09
 
  LATTYP: Found a simple cubic cell.
 ALAT       =     8.3781150000
  
  Lattice vectors:
  
 A1 = (   8.3781150000,   0.0000000000,   0.0000000000)
 A2 = (   0.0000000000,   8.3781150000,   0.0000000000)
 A3 = (   0.0000000000,   0.0000000000,   8.3781150000)


Analysis of symmetry for initial positions (statically):
=====================================================================
 Subroutine PRICEL returns following result:
 
  LATTYP: Found a face centered cubic cell.
 ALAT       =     4.1890575000
  
  Lattice vectors:
  
 A1 = (   2.0945287500,   2.0945287500,   0.0000000000)
 A2 = (   2.0945287500,   0.0000000000,  -2.0945287500)
 A3 = (   0.0000000000,   2.0945287500,  -2.0945287500)
 
  32 primitive cells build up your supercell.
 

 Routine SETGRP: Setting up the symmetry group for a 
 simple cubic supercell.


 Subroutine GETGRP returns: Found 48 space group operations
 (whereof 48 operations were pure point group operations)
 out of a pool of 48 trial point group operations.


The static configuration has the point symmetry O_h .


Analysis of symmetry for dynamics (positions and initial velocities):
=====================================================================
 Subroutine PRICEL returns following result:
 
  LATTYP: Found a face centered cubic cell.
 ALAT       =     4.1890575000
  
  Lattice vectors:
  
 A1 = (   2.0945287500,   2.0945287500,   0.0000000000)
 A2 = (   2.0945287500,   0.0000000000,  -2.0945287500)
 A3 = (   0.0000000000,   2.0945287500,  -2.0945287500)
 
  32 primitive cells build up your supercell.
 

 Routine SETGRP: Setting up the symmetry group for a 
 simple cubic supercell.


 Subroutine GETGRP returns: Found 48 space group operations
 (whereof 48 operations were pure point group operations)
 out of a pool of 48 trial point group operations.


The dynamic configuration has the point symmetry O_h .


Analysis of structural, dynamic, and magnetic symmetry:
=====================================================================
 Subroutine PRICEL returns following result:
 
  LATTYP: Found a face centered cubic cell.
 ALAT       =     4.1890575000
  
  Lattice vectors:
  
 A1 = (   2.0945287500,   2.0945287500,   0.0000000000)
 A2 = (   2.0945287500,   0.0000000000,  -2.0945287500)
 A3 = (   0.0000000000,   2.0945287500,  -2.0945287500)
 
  32 primitive cells build up your supercell.
 

 Routine SETGRP: Setting up the symmetry group for a 
 simple cubic supercell.


 Subroutine GETGRP returns: Found 12 space group operations
 (whereof 12 operations were pure point group operations)
 out of a pool of 48 trial point group operations.


The magnetic configuration has the point symmetry D_3d.


 Subroutine INISYM returns: Found 12 space group operations
 (whereof 12 operations are pure point group operations),
 and found    32 'primitive' translations

 
 
 KPOINTS: k-points                                

Automatic generation of k-mesh.
Space group operators:
 irot       det(A)        alpha          n_x          n_y          n_z        tau_x        tau_y        tau_z
    1     1.000000     0.000000     1.000000     0.000000     0.000000     0.000000     0.000000     0.000000
    2    -1.000000     0.000000     1.000000     0.000000     0.000000     0.000000     0.000000     0.000000
    3     1.000000   120.000000    -0.577350    -0.577350    -0.577350     0.000000     0.000000     0.000000
    4    -1.000000   120.000000    -0.577350    -0.577350    -0.577350     0.000000     0.000000     0.000000
    5     1.000000   120.000000     0.577350     0.577350     0.577350     0.000000     0.000000     0.000000
    6    -1.000000   120.000000     0.577350     0.577350     0.577350     0.000000     0.000000     0.000000
    7     1.000000   180.000000     0.000000    -0.707107     0.707107     0.000000     0.000000     0.000000
    8    -1.000000   180.000000     0.000000    -0.707107     0.707107     0.000000     0.000000     0.000000
    9     1.000000   180.000000     0.707107    -0.707107     0.000000     0.000000     0.000000     0.000000
   10    -1.000000   180.000000     0.707107    -0.707107     0.000000     0.000000     0.000000     0.000000
   11     1.000000   180.000000     0.707107     0.000000    -0.707107     0.000000     0.000000     0.000000
   12    -1.000000   180.000000     0.707107     0.000000    -0.707107     0.000000     0.000000     0.000000
 
 Subroutine IBZKPT returns following result:
 ===========================================
 
 Found      6 irreducible k-points:
 
 Following reciprocal coordinates:
            Coordinates               Weight
  0.000000  0.000000  0.000000      1.000000
  0.333333  0.000000  0.000000      6.000000
  0.333333  0.333333  0.000000      6.000000
 -0.333333  0.333333  0.000000      6.000000
  0.333333  0.333333  0.333333      2.000000
 -0.333333  0.333333  0.333333      6.000000
 
 Following cartesian coordinates:
            Coordinates               Weight
  0.000000  0.000000  0.000000      1.000000
  0.333333  0.000000  0.000000      6.000000
  0.333333  0.333333  0.000000      6.000000
 -0.333333  0.333333  0.000000      6.000000
  0.333333  0.333333  0.333333      2.000000
 -0.333333  0.333333  0.333333      6.000000
 


--------------------------------------------------------------------------------------------------------




 Dimension of arrays:
   k-points           NKPTS =      6   k-points in BZ     NKDIM =      6   number of bands    NBANDS=    460
   number of dos      NEDOS =    301   number of ions     NIONS =     64
   non local maximal  LDIM  =     11   non local SUM 2l+1 LMDIM =     41
   total plane-waves  NPLWV = 125000
   max r-space proj   IRMAX =   2220   max aug-charges    IRDMAX=   4892
   dimension x,y,z NGX =    50 NGY =   50 NGZ =   50
   dimension x,y,z NGXF=   100 NGYF=  100 NGZF=  100
   support grid    NGXF=   100 NGYF=  100 NGZF=  100
   ions per type =              32  32
   NGX,Y,Z   is equivalent  to a cutoff of   9.92,  9.92,  9.92 a.u.
   NGXF,Y,Z  is equivalent  to a cutoff of  19.84, 19.84, 19.84 a.u.

 SYSTEM =  NiO                                     
 POSCAR =  NiO                                     

 Startparameter for this run:
   NWRITE =      2    write-flag & timer
   PREC   = normal    normal or accurate (medium, high low for compatibility)
   ISTART =      0    job   : 0-new  1-cont  2-samecut
   ICHARG =      1    charge: 1-file 2-atom 10-const
   ISPIN  =      2    spin polarized calculation?
   LNONCOLLINEAR =      F non collinear calculations
   LSORBIT =      F    spin-orbit coupling
   INIWAV =      1    electr: 0-lowe 1-rand  2-diag
   LASPH  =      F    aspherical Exc in radial PAW
   METAGGA=      F    non-selfconsistent MetaGGA calc.

 Electronic Relaxation 1
   ENCUT  =  600.0 eV  44.10 Ry    6.64 a.u.  16.73 16.73 16.73*2*pi/ulx,y,z
   ENINI  =  600.0     initial cutoff
   ENAUG  = 1200.0 eV  augmentation charge cutoff
   NELM   =    100;   NELMIN=  2; NELMDL= -5     # of ELM steps 
   EDIFF  = 0.1E-05   stopping-criterion for ELM
   LREAL  =      T    real-space projection
   NLSPLINE    = F    spline interpolate recip. space projectors
   LCOMPAT=      F    compatible to vasp.4.4
   GGA_COMPAT  = T    GGA compatible to vasp.4.4-vasp.4.6
   LMAXPAW     = -100 max onsite density
   LMAXMIX     =    4 max onsite mixed and CHGCAR
   VOSKOWN=      0    Vosko Wilk Nusair interpolation
   ROPT   =   -0.00050  -0.00050
 Ionic relaxation
   EDIFFG = -.1E-03   stopping-criterion for IOM
   NSW    =      0    number of steps for IOM
   NBLOCK =      1;   KBLOCK =      1    inner block; outer block 
   IBRION =     -1    ionic relax: 0-MD 1-quasi-New 2-CG
   NFREE  =      1    steps in history (QN), initial steepest desc. (CG)
   ISIF   =      2    stress and relaxation
   IWAVPR =     10    prediction:  0-non 1-charg 2-wave 3-comb
   ISYM   =      2    0-nonsym 1-usesym 2-fastsym
   LCORR  =      T    Harris-Foulkes like correction to forces

   POTIM  = 0.2000    time-step for ionic-motion
   TEIN   =    0.0    initial temperature
   TEBEG  =    0.0;   TEEND  =   0.0 temperature during run
   SMASS  =  -3.00    Nose mass-parameter (am)
   estimated Nose-frequenzy (Omega)   =  0.10E-29 period in steps =****** mass=  -0.160E-26a.u.
   SCALEE = 1.0000    scale energy and forces
   NPACO  =    256;   APACO  = 16.0  distance and # of slots for P.C.
   PSTRESS=    0.0 pullay stress

  Mass of Ions in am
   POMASS =  58.69 16.00
  Ionic Valenz
   ZVAL   =  18.00  6.00
  Atomic Wigner-Seitz radii
   RWIGS  =  -1.00 -1.00
  virtual crystal weights 
   VCA    =   1.00  1.00
   NELECT =     768.0000    total number of electrons
   NUPDOWN=      -1.0000    fix difference up-down

 DOS related values:
   EMIN   =  10.00;   EMAX   =-10.00  energy-range for DOS
   EFERMI =   0.00
   ISMEAR =     0;   SIGMA  =   0.00  broadening in eV -4-tet -1-fermi 0-gaus

 Electronic relaxation 2 (details)
   IALGO  =     38    algorithm
   LDIAG  =      T    sub-space diagonalisation (order eigenvalues)
   LSUBROT=      F    optimize rotation matrix (better conditioning)
   TURBO    =      0    0=normal 1=particle mesh
   IRESTART =      0    0=no restart 2=restart with 2 vectors
   NREBOOT  =      0    no. of reboots
   NMIN     =      0    reboot dimension
   EREF     =   0.00    reference energy to select bands
   IMIX   =      4    mixing-type and parameters
     AMIX     =   0.40;   BMIX     =  1.00
     AMIX_MAG =   1.60;   BMIX_MAG =  1.00
     AMIN     =   0.10
     WC   =   100.;   INIMIX=   1;  MIXPRE=   1;  MAXMIX= -45

 Intra band minimization:
   WEIMIN = 0.0000     energy-eigenvalue tresh-hold
   EBREAK =  0.54E-09  absolut break condition
   DEPER  =   0.30     relativ break condition  

   TIME   =   0.40     timestep for ELM

  volume/ion in A,a.u.               =       9.19        62.01
  Fermi-wavevector in a.u.,A,eV,Ry     =   1.789434  3.381539 43.566843  3.202073
  Thomas-Fermi vector in A             =   2.852408
 
 Write flags
   LWAVE        =      T    write WAVECAR
   LDOWNSAMPLE  =      F    k-point downsampling of WAVECAR
   LCHARG       =      T    write CHGCAR
   LVTOT        =      F    write LOCPOT, total local potential
   LVHAR        =      F    write LOCPOT, Hartree potential only
   LELF         =      F    write electronic localiz. function (ELF)
   LORBIT       =     11    0 simple, 1 ext, 2 COOP (PROOUT), +10 PAW based schemes


 Dipole corrections
   LMONO  =      F    monopole corrections only (constant potential shift)
   LDIPOL =      F    correct potential (dipole corrections)
   IDIPOL =      0    1-x, 2-y, 3-z, 4-all directions 
   EPSILON=  1.0000000 bulk dielectric constant

 Exchange correlation treatment:
   GGA     =    --    GGA type
   LEXCH   =     8    internal setting for exchange type
   VOSKOWN=      0    Vosko Wilk Nusair interpolation
   LHFCALC =     F    Hartree Fock is set to
   LHFONE  =     F    Hartree Fock one center treatment
   AEXX    =    0.0000 exact exchange contribution

 Linear response parameters
   LEPSILON=     F    determine dielectric tensor
   LRPA    =     F    only Hartree local field effects (RPA)
   LNABLA  =     F    use nabla operator in PAW spheres
   LVEL    =     F    velocity operator in full k-point grid
   LINTERFAST=   F  fast interpolation
   KINTER  =     0    interpolate to denser k-point grid
   CSHIFT  =0.1000    complex shift for real part using Kramers Kronig
   OMEGAMAX=  -1.0    maximum frequency
   DEG_THRESHOLD= 0.2000000E-02 threshold for treating states as degnerate
   RTIME   =   -0.100 relaxation time in fs
  (WPLASMAI=    0.000 imaginary part of plasma frequency in eV, 0.658/RTIME)
   DFIELD  = 0.0000000 0.0000000 0.0000000 field for delta impulse in time
 
 Orbital magnetization related:
   ORBITALMAG=     F  switch on orbital magnetization
   LCHIMAG   =     F  perturbation theory with respect to B field
   DQ        =  0.001000  dq finite difference perturbation B field
   LLRAUG    =     F  two centre corrections for induced B field



--------------------------------------------------------------------------------------------------------


 Static calculation
 charge density and potential will be updated during run
 spin polarized calculation
 Variant of blocked Davidson
 Davidson routine will perform the subspace rotation
 perform sub-space diagonalisation
    after iterative eigenvector-optimisation
 modified Broyden-mixing scheme, WC =      100.0
 initial mixing is a Kerker type mixing with AMIX =  0.4000 and BMIX =      1.0000
 Hartree-type preconditioning will be used
 using additional bands           76
 real space projection scheme for non local part
 use partial core corrections
 calculate Harris-corrections to forces 
   (improved forces if not selfconsistent)
 use gradient corrections 
 use of overlap-Matrix (Vanderbilt PP)
 Gauss-broadening in eV      SIGMA  =   0.00


--------------------------------------------------------------------------------------------------------


  energy-cutoff  :      600.00
  volume of cell :      588.08
      direct lattice vectors                 reciprocal lattice vectors
     8.378115000  0.000000000  0.000000000     0.119358591  0.000000000  0.000000000
     0.000000000  8.378115000  0.000000000     0.000000000  0.119358591  0.000000000
     0.000000000  0.000000000  8.378115000     0.000000000  0.000000000  0.119358591

  length of vectors
     8.378115000  8.378115000  8.378115000     0.119358591  0.119358591  0.119358591


 
 k-points in units of 2pi/SCALE and weight: k-points                                
   0.00000000  0.00000000  0.00000000       0.037
   0.33333333  0.00000000  0.00000000       0.222
   0.33333333  0.33333333  0.00000000       0.222
  -0.33333333  0.33333333  0.00000000       0.222
   0.33333333  0.33333333  0.33333333       0.074
  -0.33333333  0.33333333  0.33333333       0.222
 
 k-points in reciprocal lattice and weights: k-points                                
   0.00000000  0.00000000  0.00000000       0.037
   0.33333333  0.00000000  0.00000000       0.222
   0.33333333  0.33333333  0.00000000       0.222
  -0.33333333  0.33333333  0.00000000       0.222
   0.33333333  0.33333333  0.33333333       0.074
  -0.33333333  0.33333333  0.33333333       0.222
 
 position of ions in fractional coordinates (direct lattice) 
   0.00000000  0.00000000  0.00000000
   0.25000000  0.25000000  0.50000000
   0.50000000  0.50000000  0.00000000
   0.75000000  0.75000000  0.50000000
   0.25000000  0.50000000  0.25000000
   0.50000000  0.75000000  0.75000000
   0.75000000  0.00000000  0.25000000
   0.00000000  0.25000000  0.75000000
   0.50000000  0.00000000  0.50000000
   0.75000000  0.25000000  0.00000000
   0.00000000  0.50000000  0.50000000
   0.25000000  0.75000000  0.00000000
   0.75000000  0.50000000  0.75000000
   0.00000000  0.75000000  0.25000000
   0.25000000  0.00000000  0.75000000
   0.50000000  0.25000000  0.25000000
   0.50000000  0.50000000  0.50000000
   0.75000000  0.75000000  0.00000000
   0.00000000  0.00000000  0.50000000
   0.25000000  0.25000000  0.00000000
   0.75000000  0.00000000  0.75000000
   0.00000000  0.25000000  0.25000000
   0.25000000  0.50000000  0.75000000
   0.50000000  0.75000000  0.25000000
   0.00000000  0.50000000  0.00000000
   0.25000000  0.75000000  0.50000000
   0.50000000  0.00000000  0.00000000
   0.75000000  0.25000000  0.50000000
   0.25000000  0.00000000  0.25000000
   0.50000000  0.25000000  0.75000000
   0.75000000  0.50000000  0.25000000
   0.00000000  0.75000000  0.75000000
   0.25000000  0.25000000  0.25000000
   0.50000000  0.50000000  0.75000000
   0.75000000  0.75000000  0.25000000
   0.00000000  0.00000000  0.75000000
   0.50000000  0.75000000  0.50000000
   0.75000000  0.00000000  0.00000000
   0.00000000  0.25000000  0.50000000
   0.25000000  0.50000000  0.00000000
   0.75000000  0.25000000  0.75000000
   0.00000000  0.50000000  0.25000000
   0.25000000  0.75000000  0.75000000
   0.50000000  0.00000000  0.25000000
   0.00000000  0.75000000  0.00000000
   0.25000000  0.00000000  0.50000000
   0.50000000  0.25000000  0.00000000
   0.75000000  0.50000000  0.50000000
   0.75000000  0.75000000  0.75000000
   0.00000000  0.00000000  0.25000000
   0.25000000  0.25000000  0.75000000
   0.50000000  0.50000000  0.25000000
   0.00000000  0.25000000  0.00000000
   0.25000000  0.50000000  0.50000000
   0.50000000  0.75000000  0.00000000
   0.75000000  0.00000000  0.50000000
   0.25000000  0.75000000  0.25000000
   0.50000000  0.00000000  0.75000000
   0.75000000  0.25000000  0.25000000
   0.00000000  0.50000000  0.75000000
   0.50000000  0.25000000  0.50000000
   0.75000000  0.50000000  0.00000000
   0.00000000  0.75000000  0.50000000
   0.25000000  0.00000000  0.00000000
 
 position of ions in cartesian coordinates  (Angst):
   0.00000000  0.00000000  0.00000000
   2.09452875  2.09452875  4.18905750
   4.18905750  4.18905750  0.00000000
   6.28358625  6.28358625  4.18905750
   2.09452875  4.18905750  2.09452875
   4.18905750  6.28358625  6.28358625
   6.28358625  0.00000000  2.09452875
   0.00000000  2.09452875  6.28358625
   4.18905750  0.00000000  4.18905750
   6.28358625  2.09452875  0.00000000
   0.00000000  4.18905750  4.18905750
   2.09452875  6.28358625  0.00000000
   6.28358625  4.18905750  6.28358625
   0.00000000  6.28358625  2.09452875
   2.09452875  0.00000000  6.28358625
   4.18905750  2.09452875  2.09452875
   4.18905750  4.18905750  4.18905750
   6.28358625  6.28358625  0.00000000
   0.00000000  0.00000000  4.18905750
   2.09452875  2.09452875  0.00000000
   6.28358625  0.00000000  6.28358625
   0.00000000  2.09452875  2.09452875
   2.09452875  4.18905750  6.28358625
   4.18905750  6.28358625  2.09452875
   0.00000000  4.18905750  0.00000000
   2.09452875  6.28358625  4.18905750
   4.18905750  0.00000000  0.00000000
   6.28358625  2.09452875  4.18905750
   2.09452875  0.00000000  2.09452875
   4.18905750  2.09452875  6.28358625
   6.28358625  4.18905750  2.09452875
   0.00000000  6.28358625  6.28358625
   2.09452875  2.09452875  2.09452875
   4.18905750  4.18905750  6.28358625
   6.28358625  6.28358625  2.09452875
   0.00000000  0.00000000  6.28358625
   4.18905750  6.28358625  4.18905750
   6.28358625  0.00000000  0.00000000
   0.00000000  2.09452875  4.18905750
   2.09452875  4.18905750  0.00000000
   6.28358625  2.09452875  6.28358625
   0.00000000  4.18905750  2.09452875
   2.09452875  6.28358625  6.28358625
   4.18905750  0.00000000  2.09452875
   0.00000000  6.28358625  0.00000000
   2.09452875  0.00000000  4.18905750
   4.18905750  2.09452875  0.00000000
   6.28358625  4.18905750  4.18905750
   6.28358625  6.28358625  6.28358625
   0.00000000  0.00000000  2.09452875
   2.09452875  2.09452875  6.28358625
   4.18905750  4.18905750  2.09452875
   0.00000000  2.09452875  0.00000000
   2.09452875  4.18905750  4.18905750
   4.18905750  6.28358625  0.00000000
   6.28358625  0.00000000  4.18905750
   2.09452875  6.28358625  2.09452875
   4.18905750  0.00000000  6.28358625
   6.28358625  2.09452875  2.09452875
   0.00000000  4.18905750  6.28358625
   4.18905750  2.09452875  4.18905750
   6.28358625  4.18905750  0.00000000
   0.00000000  6.28358625  4.18905750
   2.09452875  0.00000000  0.00000000
 


--------------------------------------------------------------------------------------------------------


 k-point  1 :   0.0000 0.0000 0.0000  plane waves:   19549
 k-point  2 :   0.3333 0.0000 0.0000  plane waves:   19654
 k-point  3 :   0.3333 0.3333 0.0000  plane waves:   19586
 k-point  4 :  -0.3333 0.3333 0.0000  plane waves:   19586
 k-point  5 :   0.3333 0.3333 0.3333  plane waves:   19603
 k-point  6 :  -0.3333 0.3333 0.3333  plane waves:   19603

 maximum and minimum number of plane-waves per node :     19654    19549

 maximum number of plane-waves:     19654
 maximum index in each direction: 
   IXMAX=   17   IYMAX=   16   IZMAX=   16
   IXMIN=  -17   IYMIN=  -17   IZMIN=  -17


 serial   3D FFT for wavefunctions
 parallel 3D FFT for charge:
    minimum data exchange during FFTs selected (reduces bandwidth)


 total amount of memory used by VASP MPI-rank0  2118346. kBytes
=======================================================================

   base      :      30000. kBytes
   nonlr-proj:      38044. kBytes
   fftplans  :      34720. kBytes
   grid      :      91360. kBytes
   one-center:      10328. kBytes
   wavefun   :    1913894. kBytes
 
     INWAV:  cpu time    0.0001: real time    0.0001
 Broyden mixing: mesh for mixing (old mesh)
   NGX = 33   NGY = 33   NGZ = 33
  (NGX  =100   NGY  =100   NGZ  =100)
  gives a total of  35937 points

 initial charge density was supplied:
 number of electron     768.0003318 magnetization       0.0000000
 keeping initial charge density in first step


--------------------------------------------------------------------------------------------------------


 Maximum index for non-local projection operator         2176
 Maximum index for augmentation-charges         4553 (set IRDMAX)


--------------------------------------------------------------------------------------------------------


 First call to EWALD:  gamma=   0.212
 Maximum number of real-space cells 3x 3x 3
 Maximum number of reciprocal cells 3x 3x 3

    FEWALD:  cpu time    0.0130: real time    0.0130


----------------------------------------- Iteration    1(   1)  ---------------------------------------


    POTLOK:  cpu time    0.9943: real time    0.9940
    SETDIJ:  cpu time    0.3966: real time    0.3964
     EDDAV:  cpu time   15.4081: real time   15.4144
       DOS:  cpu time    0.0083: real time    0.0083
    --------------------------------------------
      LOOP:  cpu time   16.8098: real time   16.8157

 eigenvalue-minimisations  : 12796
 total energy-change (2. order) : 0.3371870E+05  (-0.2333409E+05)
 number of electron     768.0003318 magnetization       0.0000000
 augmentation part      768.0003318 magnetization       0.0000000

 Free energy of the ion-electron system (eV)
  ---------------------------------------------------
  alpha Z        PSCENC =      5395.69248661
  Ewald energy   TEWEN  =   -103725.60568214
  -Hartree energ DENC   =    -47218.96024685
  -exchange      EXHF   =         0.00000000
  -V(xc)+E(xc)   XCENC  =      5116.52434971
  PAW double counting   =    142077.22770907  -148126.97835835
  entropy T*S    EENTRO =        -0.00005713
  eigenvalues    EBANDS =     17795.17376795
  atomic energy  EATOM  =    162405.62235658
  Solvation  Ediel_sol  =         0.00000000
  ---------------------------------------------------
  free energy    TOTEN  =     33718.69632546 eV

  energy without entropy =    33718.69638259  energy(sigma->0) =    33718.69635402


--------------------------------------------------------------------------------------------------------




----------------------------------------- Iteration    1(   2)  ---------------------------------------


     EDDAV:  cpu time   15.9173: real time   15.9439
       DOS:  cpu time    0.0078: real time    0.0078
    --------------------------------------------
      LOOP:  cpu time   15.9255: real time   15.9521

 eigenvalue-minimisations  : 13496
 total energy-change (2. order) :-0.2029185E+05  (-0.1813373E+05)
 number of electron     768.0003318 magnetization       0.0000000
 augmentation part      768.0003318 magnetization       0.0000000

 Free energy of the ion-electron system (eV)
  ---------------------------------------------------
  alpha Z        PSCENC =      5395.69248661
  Ewald energy   TEWEN  =   -103725.60568214
  -Hartree energ DENC   =    -47218.96024685
  -exchange      EXHF   =         0.00000000
  -V(xc)+E(xc)   XCENC  =      5116.52434971
  PAW double counting   =    142077.22770907  -148126.97835835
  entropy T*S    EENTRO =        -0.00005713
  eigenvalues    EBANDS =     -2496.67534836
  atomic energy  EATOM  =    162405.62235658
  Solvation  Ediel_sol  =         0.00000000
  ---------------------------------------------------
  free energy    TOTEN  =     13426.84720914 eV

  energy without entropy =    13426.84726628  energy(sigma->0) =    13426.84723771


--------------------------------------------------------------------------------------------------------




----------------------------------------- Iteration    1(   3)  ---------------------------------------


     EDDAV:  cpu time   17.8353: real time   17.8525
       DOS:  cpu time    0.0091: real time    0.0091
    --------------------------------------------
      LOOP:  cpu time   17.8449: real time   17.8620

 eigenvalue-minimisations  : 16080
 total energy-change (2. order) :-0.9380611E+04  (-0.8895963E+04)
 number of electron     768.0003318 magnetization       0.0000000
 augmentation part      768.0003318 magnetization       0.0000000

 Free energy of the ion-electron system (eV)
  ---------------------------------------------------
  alpha Z        PSCENC =      5395.69248661
  Ewald energy   TEWEN  =   -103725.60568214
  -Hartree energ DENC   =    -47218.96024685
  -exchange      EXHF   =         0.00000000
  -V(xc)+E(xc)   XCENC  =      5116.52434971
  PAW double counting   =    142077.22770907  -148126.97835835
  entropy T*S    EENTRO =        -0.00005713
  eigenvalues    EBANDS =    -11877.28672498
  atomic energy  EATOM  =    162405.62235658
  Solvation  Ediel_sol  =         0.00000000
  ---------------------------------------------------
  free energy    TOTEN  =      4046.23583252 eV

  energy without entropy =     4046.23588966  energy(sigma->0) =     4046.23586109


--------------------------------------------------------------------------------------------------------




----------------------------------------- Iteration    1(   4)  ---------------------------------------


     EDDAV:  cpu time   21.3558: real time   21.3772
       DOS:  cpu time    0.0078: real time    0.0078
    --------------------------------------------
      LOOP:  cpu time   21.3641: real time   21.3855

 eigenvalue-minimisations  : 20484
 total energy-change (2. order) :-0.3212218E+04  (-0.3013375E+04)
 number of electron     768.0003318 magnetization       0.0000000
 augmentation part      768.0003318 magnetization       0.0000000

 Free energy of the ion-electron system (eV)
  ---------------------------------------------------
  alpha Z        PSCENC =      5395.69248661
  Ewald energy   TEWEN  =   -103725.60568214
  -Hartree energ DENC   =    -47218.96024685
  -exchange      EXHF   =         0.00000000
  -V(xc)+E(xc)   XCENC  =      5116.52434971
  PAW double counting   =    142077.22770907  -148126.97835835
  entropy T*S    EENTRO =        -0.00003926
  eigenvalues    EBANDS =    -15089.50503487
  atomic energy  EATOM  =    162405.62235658
  Solvation  Ediel_sol  =         0.00000000
  ---------------------------------------------------
  free energy    TOTEN  =       834.01754051 eV

  energy without entropy =      834.01757977  energy(sigma->0) =      834.01756014


--------------------------------------------------------------------------------------------------------




----------------------------------------- Iteration    1(   5)  ---------------------------------------


     EDDAV:  cpu time   22.0966: real time   22.1191
       DOS:  cpu time    0.0043: real time    0.0043
    CHARGE:  cpu time    4.2877: real time    4.2865
    MIXING:  cpu time    0.0203: real time    0.0203
    --------------------------------------------
      LOOP:  cpu time   26.4096: real time   26.4309

 eigenvalue-minimisations  : 21472
 total energy-change (2. order) :-0.8512452E+03  (-0.7672048E+03)
 number of electron     768.0005536 magnetization       0.0000000
 augmentation part      326.0591830 magnetization       0.0000000

 Broyden mixing:
  rms(total) = 0.13809E+02    rms(broyden)= 0.13808E+02
  rms(prec ) = 0.16272E+02
  weight for this iteration     100.00

 Free energy of the ion-electron system (eV)
  ---------------------------------------------------
  alpha Z        PSCENC =      5395.69248661
  Ewald energy   TEWEN  =   -103725.60568214
  -Hartree energ DENC   =    -47218.96024685
  -exchange      EXHF   =         0.00000000
  -V(xc)+E(xc)   XCENC  =      5116.52434971
  PAW double counting   =    142077.22770907  -148126.97835835
  entropy T*S    EENTRO =        -0.00000000
  eigenvalues    EBANDS =    -15940.75022623
  atomic energy  EATOM  =    162405.62235658
  Solvation  Ediel_sol  =         0.00000000
  ---------------------------------------------------
  free energy    TOTEN  =       -17.22761159 eV

  energy without entropy =      -17.22761159  energy(sigma->0) =      -17.22761159


--------------------------------------------------------------------------------------------------------




----------------------------------------- Iteration    1(   6)  ---------------------------------------


    POTLOK:  cpu time    0.9699: real time    0.9694
    SETDIJ:  cpu time    0.3982: real time    0.3981
     EDDAV:  cpu time   21.5585: real time   21.5941
       DOS:  cpu time    0.0092: real time    0.0092
    CHARGE:  cpu time    4.2842: real time    4.2829
    MIXING:  cpu time    0.0247: real time    0.0247
    --------------------------------------------
      LOOP:  cpu time   27.2452: real time   27.2789

 eigenvalue-minimisations  : 20860
 total energy-change (2. order) :-0.3484018E+03  (-0.3976581E+03)
 number of electron     768.0004482 magnetization      -0.0000000
 augmentation part      287.7315061 magnetization      -0.0000000

 Broyden mixing:
  rms(total) = 0.83111E+01    rms(broyden)= 0.83100E+01
  rms(prec ) = 0.11180E+02
  weight for this iteration     100.00

 eigenvalues of (default mixing * dielectric matrix)
  average eigenvalue GAMMA=   0.7132
  0.7132

 Free energy of the ion-electron system (eV)
  ---------------------------------------------------
  alpha Z        PSCENC =      5395.69248661
  Ewald energy   TEWEN  =   -103725.60568214
  -Hartree energ DENC   =    -49276.71710029
  -exchange      EXHF   =         0.00000000
  -V(xc)+E(xc)   XCENC  =      5145.02838610
  PAW double counting   =    152283.38955093  -158804.48153377
  entropy T*S    EENTRO =        -0.00012902
  eigenvalues    EBANDS =    -13788.55770570
  atomic energy  EATOM  =    162405.62235658
  Solvation  Ediel_sol  =         0.00000000
  ---------------------------------------------------
  free energy    TOTEN  =      -365.62937070 eV

  energy without entropy =     -365.62924168  energy(sigma->0) =     -365.62930619


--------------------------------------------------------------------------------------------------------




----------------------------------------- Iteration    1(   7)  ---------------------------------------


    POTLOK:  cpu time    0.9648: real time    0.9643
    SETDIJ:  cpu time    0.3981: real time    0.3980
     EDDAV:  cpu time   19.7568: real time   19.7919
       DOS:  cpu time    0.0078: real time    0.0078
    CHARGE:  cpu time    4.2759: real time    4.2747
    MIXING:  cpu time    0.0266: real time    0.0266
    --------------------------------------------
      LOOP:  cpu time   25.4307: real time   25.4639

 eigenvalue-minimisations  : 18832
 total energy-change (2. order) :-0.4049211E+02  (-0.2238648E+03)
 number of electron     768.0004380 magnetization       0.0000000
 augmentation part      306.5936953 magnetization       0.0000000

 Broyden mixing:
  rms(total) = 0.66556E+01    rms(broyden)= 0.66527E+01
  rms(prec ) = 0.82097E+01
  weight for this iteration     100.00

 eigenvalues of (default mixing * dielectric matrix)
  average eigenvalue GAMMA=   0.6019
  0.6019  0.6019

 Free energy of the ion-electron system (eV)
  ---------------------------------------------------
  alpha Z        PSCENC =      5395.69248661
  Ewald energy   TEWEN  =   -103725.60568214
  -Hartree energ DENC   =    -47724.30557576
  -exchange      EXHF   =         0.00000000
  -V(xc)+E(xc)   XCENC  =      5100.87500946
  PAW double counting   =    150106.12892454  -156220.89006483
  entropy T*S    EENTRO =        -0.00005748
  eigenvalues    EBANDS =    -15743.63887518
  atomic energy  EATOM  =    162405.62235658
  Solvation  Ediel_sol  =         0.00000000
  ---------------------------------------------------
  free energy    TOTEN  =      -406.12147820 eV

  energy without entropy =     -406.12142072  energy(sigma->0) =     -406.12144946


--------------------------------------------------------------------------------------------------------




----------------------------------------- Iteration    1(   8)  ---------------------------------------


    POTLOK:  cpu time    0.9522: real time    0.9517
    SETDIJ:  cpu time    0.3978: real time    0.3976
     EDDAV:  cpu time   21.1676: real time   21.1966
       DOS:  cpu time    0.0010: real time    0.0011
    CHARGE:  cpu time    4.2635: real time    4.2624
    MIXING:  cpu time    0.0321: real time    0.0320
    --------------------------------------------
      LOOP:  cpu time   26.8149: real time   26.8420

 eigenvalue-minimisations  : 20472
 total energy-change (2. order) :-0.1386453E+02  (-0.4195933E+02)
 number of electron     768.0004333 magnetization      -0.0000000
 augmentation part      307.1728396 magnetization      -0.0000000

 Broyden mixing:
  rms(total) = 0.62139E+01    rms(broyden)= 0.62092E+01
  rms(prec ) = 0.73529E+01
  weight for this iteration     100.00

 eigenvalues of (default mixing * dielectric matrix)
  average eigenvalue GAMMA=   0.4553
  0.5400  0.5400  0.2858

 Free energy of the ion-electron system (eV)
  ---------------------------------------------------
  alpha Z        PSCENC =      5395.69248661
  Ewald energy   TEWEN  =   -103725.60568214
  -Hartree energ DENC   =    -47782.94336217
  -exchange      EXHF   =         0.00000000
  -V(xc)+E(xc)   XCENC  =      5113.65237221
  PAW double counting   =    147821.16139238  -153987.99183987
  entropy T*S    EENTRO =         0.00000000
  eigenvalues    EBANDS =    -15659.57372712
  atomic energy  EATOM  =    162405.62235658
  Solvation  Ediel_sol  =         0.00000000
  ---------------------------------------------------
  free energy    TOTEN  =      -419.98600352 eV

  energy without entropy =     -419.98600352  energy(sigma->0) =     -419.98600352


--------------------------------------------------------------------------------------------------------




----------------------------------------- Iteration    1(   9)  ---------------------------------------


    POTLOK:  cpu time    0.9626: real time    0.9622
    SETDIJ:  cpu time    0.3983: real time    0.3982
     EDDAV:  cpu time   19.6725: real time   19.6850
       DOS:  cpu time    0.0009: real time    0.0009
    CHARGE:  cpu time    4.2914: real time    4.2902
    MIXING:  cpu time    0.0328: real time    0.0327
    --------------------------------------------
      LOOP:  cpu time   25.3592: real time   25.3698

 eigenvalue-minimisations  : 18496
 total energy-change (2. order) :-0.2265200E+01  (-0.6939446E+01)
 number of electron     768.0004320 magnetization      -0.0000000
 augmentation part      306.1591007 magnetization      -0.0000000

 Broyden mixing:
  rms(total) = 0.57136E+01    rms(broyden)= 0.57124E+01
  rms(prec ) = 0.68046E+01
  weight for this iteration     100.00

 eigenvalues of (default mixing * dielectric matrix)
  average eigenvalue GAMMA=   0.7475
  0.9553  0.9553  0.5398  0.5398

 Free energy of the ion-electron system (eV)
  ---------------------------------------------------
  alpha Z        PSCENC =      5395.69248661
  Ewald energy   TEWEN  =   -103725.60568214
  -Hartree energ DENC   =    -47846.13540177
  -exchange      EXHF   =         0.00000000
  -V(xc)+E(xc)   XCENC  =      5120.36016456
  PAW double counting   =    147180.81933836  -153346.40423271
  entropy T*S    EENTRO =         0.00000000
  eigenvalues    EBANDS =    -15606.60023282
  atomic energy  EATOM  =    162405.62235658
  Solvation  Ediel_sol  =         0.00000000
  ---------------------------------------------------
  free energy    TOTEN  =      -422.25120334 eV

  energy without entropy =     -422.25120334  energy(sigma->0) =     -422.25120334


--------------------------------------------------------------------------------------------------------




----------------------------------------- Iteration    1(  10)  ---------------------------------------


    POTLOK:  cpu time    0.9530: real time    0.9527
    SETDIJ:  cpu time    0.4001: real time    0.4000
     EDDAV:  cpu time   22.2182: real time   22.2367
       DOS:  cpu time    0.0011: real time    0.0011
    CHARGE:  cpu time    4.2624: real time    4.2618
    MIXING:  cpu time    0.0399: real time    0.0399
    --------------------------------------------
      LOOP:  cpu time   27.8753: real time   27.8928

 eigenvalue-minimisations  : 22064
 total energy-change (2. order) : 0.1896745E+02  (-0.4664462E+01)
 number of electron     768.0004308 magnetization      -0.0000000
 augmentation part      306.9092437 magnetization      -0.0000000

 Broyden mixing:
  rms(total) = 0.22523E+01    rms(broyden)= 0.22510E+01
  rms(prec ) = 0.27832E+01
  weight for this iteration     100.00

 eigenvalues of (default mixing * dielectric matrix)
  average eigenvalue GAMMA=   0.7782
  1.1679  1.1679  0.6478  0.4538  0.4538

 Free energy of the ion-electron system (eV)
  ---------------------------------------------------
  alpha Z        PSCENC =      5395.69248661
  Ewald energy   TEWEN  =   -103725.60568214
  -Hartree energ DENC   =    -47859.47525063
  -exchange      EXHF   =         0.00000000
  -V(xc)+E(xc)   XCENC  =      5139.22407813
  PAW double counting   =    143767.79595965  -149880.28065142
  entropy T*S    EENTRO =         0.00000000
  eigenvalues    EBANDS =    -15646.25705367
  atomic energy  EATOM  =    162405.62235658
  Solvation  Ediel_sol  =         0.00000000
  ---------------------------------------------------
  free energy    TOTEN  =      -403.28375689 eV

  energy without entropy =     -403.28375689  energy(sigma->0) =     -403.28375689


--------------------------------------------------------------------------------------------------------




----------------------------------------- Iteration    1(  11)  ---------------------------------------


    POTLOK:  cpu time    0.9693: real time    0.9689
    SETDIJ:  cpu time    0.3996: real time    0.3996
     EDDAV:  cpu time   22.4406: real time   22.4958
       DOS:  cpu time    0.0011: real time    0.0011
    CHARGE:  cpu time    4.2673: real time    4.2667
    MIXING:  cpu time    0.0396: real time    0.0395
    --------------------------------------------
      LOOP:  cpu time   28.1181: real time   28.1723

 eigenvalue-minimisations  : 22080
 total energy-change (2. order) : 0.4930892E+01  (-0.3192001E+01)
 number of electron     768.0004348 magnetization      -0.0000000
 augmentation part      308.2197751 magnetization      -0.0000000

 Broyden mixing:
  rms(total) = 0.24599E+01    rms(broyden)= 0.24598E+01
  rms(prec ) = 0.24908E+01
  weight for this iteration     100.00

 eigenvalues of (default mixing * dielectric matrix)
  average eigenvalue GAMMA=   0.7354
  1.0558  1.0558  0.6933  0.5874  0.5874  0.4329

 Free energy of the ion-electron system (eV)
  ---------------------------------------------------
  alpha Z        PSCENC =      5395.69248661
  Ewald energy   TEWEN  =   -103725.60568214
  -Hartree energ DENC   =    -47867.42390215
  -exchange      EXHF   =         0.00000000
  -V(xc)+E(xc)   XCENC  =      5150.30546397
  PAW double counting   =    141900.50902555  -147988.19946125
  entropy T*S    EENTRO =         0.00000000
  eigenvalues    EBANDS =    -15669.25315230
  atomic energy  EATOM  =    162405.62235658
  Solvation  Ediel_sol  =         0.00000000
  ---------------------------------------------------
  free energy    TOTEN  =      -398.35286513 eV

  energy without entropy =     -398.35286513  energy(sigma->0) =     -398.35286513


--------------------------------------------------------------------------------------------------------




----------------------------------------- Iteration    1(  12)  ---------------------------------------


    POTLOK:  cpu time    0.9541: real time    0.9539
    SETDIJ:  cpu time    0.3985: real time    0.3985
     EDDAV:  cpu time   21.3688: real time   21.3909
       DOS:  cpu time    0.0009: real time    0.0009
    CHARGE:  cpu time    4.2639: real time    4.2636
    MIXING:  cpu time    0.0484: real time    0.0484
    --------------------------------------------
      LOOP:  cpu time   27.0353: real time   27.0568

 eigenvalue-minimisations  : 20800
 total energy-change (2. order) :-0.2449145E+01  (-0.5676274E+00)
 number of electron     768.0004360 magnetization       0.0000000
 augmentation part      308.0213979 magnetization       0.0000000

 Broyden mixing:
  rms(total) = 0.15131E+01    rms(broyden)= 0.15131E+01
  rms(prec ) = 0.15424E+01
  weight for this iteration     100.00

 eigenvalues of (default mixing * dielectric matrix)
  average eigenvalue GAMMA=   0.6851
  1.0163  1.0163  0.6748  0.6748  0.7007  0.3565  0.3565

 Free energy of the ion-electron system (eV)
  ---------------------------------------------------
  alpha Z        PSCENC =      5395.69248661
  Ewald energy   TEWEN  =   -103725.60568214
  -Hartree energ DENC   =    -47868.26446967
  -exchange      EXHF   =         0.00000000
  -V(xc)+E(xc)   XCENC  =      5144.79394942
  PAW double counting   =    142447.82663793  -148546.25470344
  entropy T*S    EENTRO =         0.00000000
  eigenvalues    EBANDS =    -15654.61258550
  atomic energy  EATOM  =    162405.62235658
  Solvation  Ediel_sol  =         0.00000000
  ---------------------------------------------------
  free energy    TOTEN  =      -400.80201021 eV

  energy without entropy =     -400.80201021  energy(sigma->0) =     -400.80201021


--------------------------------------------------------------------------------------------------------




----------------------------------------- Iteration    1(  13)  ---------------------------------------


    POTLOK:  cpu time    0.9640: real time    0.9636
    SETDIJ:  cpu time    0.3979: real time    0.3978
     EDDAV:  cpu time   21.8801: real time   21.9085
       DOS:  cpu time    0.0009: real time    0.0009
    CHARGE:  cpu time    4.2624: real time    4.2619
    MIXING:  cpu time    0.0473: real time    0.0473
    --------------------------------------------
      LOOP:  cpu time   27.5533: real time   27.5807

 eigenvalue-minimisations  : 21480
 total energy-change (2. order) :-0.5902443E+00  (-0.1357541E+00)
 number of electron     768.0004367 magnetization      -0.0000000
 augmentation part      307.9994856 magnetization      -0.0000000

 Broyden mixing:
  rms(total) = 0.12580E+01    rms(broyden)= 0.12580E+01
  rms(prec ) = 0.13210E+01
  weight for this iteration     100.00

 eigenvalues of (default mixing * dielectric matrix)
  average eigenvalue GAMMA=   0.8568
  1.2447  1.2447  0.9890  0.9890  0.5773  0.5773  0.6161  0.6161

 Free energy of the ion-electron system (eV)
  ---------------------------------------------------
  alpha Z        PSCENC =      5395.69248661
  Ewald energy   TEWEN  =   -103725.60568214
  -Hartree energ DENC   =    -47861.42528686
  -exchange      EXHF   =         0.00000000
  -V(xc)+E(xc)   XCENC  =      5142.38057454
  PAW double counting   =    142600.60070080  -148698.35760596
  entropy T*S    EENTRO =         0.00000000
  eigenvalues    EBANDS =    -15660.29979812
  atomic energy  EATOM  =    162405.62235658
  Solvation  Ediel_sol  =         0.00000000
  ---------------------------------------------------
  free energy    TOTEN  =      -401.39225455 eV

  energy without entropy =     -401.39225455  energy(sigma->0) =     -401.39225455


--------------------------------------------------------------------------------------------------------




----------------------------------------- Iteration    1(  14)  ---------------------------------------


    POTLOK:  cpu time    0.9571: real time    0.9568
    SETDIJ:  cpu time    0.3977: real time    0.3975
     EDDAV:  cpu time   21.2886: real time   21.3141
       DOS:  cpu time    0.0010: real time    0.0010
    CHARGE:  cpu time    4.2728: real time    4.2716
    MIXING:  cpu time    0.0589: real time    0.0588
    --------------------------------------------
      LOOP:  cpu time   26.9767: real time   27.0005

 eigenvalue-minimisations  : 20568
 total energy-change (2. order) :-0.1135828E+00  (-0.5091116E-01)
 number of electron     768.0004398 magnetization      -0.0000000
 augmentation part      308.4480391 magnetization      -0.0000000

 Broyden mixing:
  rms(total) = 0.79751E+00    rms(broyden)= 0.79717E+00
  rms(prec ) = 0.85455E+00
  weight for this iteration     100.00

 eigenvalues of (default mixing * dielectric matrix)
  average eigenvalue GAMMA=   0.9023
  1.6192  1.6192  0.9890  0.9890  0.6053  0.6053  0.6573  0.5184  0.5184

 Free energy of the ion-electron system (eV)
  ---------------------------------------------------
  alpha Z        PSCENC =      5395.69248661
  Ewald energy   TEWEN  =   -103725.60568214
  -Hartree energ DENC   =    -47846.25600273
  -exchange      EXHF   =         0.00000000
  -V(xc)+E(xc)   XCENC  =      5139.36359469
  PAW double counting   =    142173.48351299  -148258.02030860
  entropy T*S    EENTRO =         0.00000000
  eigenvalues    EBANDS =    -15685.78579472
  atomic energy  EATOM  =    162405.62235658
  Solvation  Ediel_sol  =         0.00000000
  ---------------------------------------------------
  free energy    TOTEN  =      -401.50583733 eV

  energy without entropy =     -401.50583733  energy(sigma->0) =     -401.50583733


--------------------------------------------------------------------------------------------------------




----------------------------------------- Iteration    1(  15)  ---------------------------------------


    POTLOK:  cpu time    0.9637: real time    0.9632
    SETDIJ:  cpu time    0.3986: real time    0.3985
     EDDAV:  cpu time   19.0489: real time   19.0717
       DOS:  cpu time    0.0009: real time    0.0009
    CHARGE:  cpu time    4.2595: real time    4.2590
    MIXING:  cpu time    0.0563: real time    0.0563
    --------------------------------------------
      LOOP:  cpu time   24.7284: real time   24.7502

 eigenvalue-minimisations  : 17880
 total energy-change (2. order) : 0.5524593E-01  (-0.1835626E-01)
 number of electron     768.0004406 magnetization      -0.0000000
 augmentation part      308.6834971 magnetization      -0.0000000

 Broyden mixing:
  rms(total) = 0.55924E+00    rms(broyden)= 0.55919E+00
  rms(prec ) = 0.60148E+00
  weight for this iteration     100.00

 eigenvalues of (default mixing * dielectric matrix)
  average eigenvalue GAMMA=   0.9864
  2.0254  2.0254  1.0050  1.0050  0.6161  0.6161  0.6270  0.6270  0.7167  0.6002

 Free energy of the ion-electron system (eV)
  ---------------------------------------------------
  alpha Z        PSCENC =      5395.69248661
  Ewald energy   TEWEN  =   -103725.60568214
  -Hartree energ DENC   =    -47839.36688772
  -exchange      EXHF   =         0.00000000
  -V(xc)+E(xc)   XCENC  =      5139.57653388
  PAW double counting   =    141767.29799838  -147845.47760221
  entropy T*S    EENTRO =         0.00000000
  eigenvalues    EBANDS =    -15699.18979478
  atomic energy  EATOM  =    162405.62235658
  Solvation  Ediel_sol  =         0.00000000
  ---------------------------------------------------
  free energy    TOTEN  =      -401.45059140 eV

  energy without entropy =     -401.45059140  energy(sigma->0) =     -401.45059140


--------------------------------------------------------------------------------------------------------




----------------------------------------- Iteration    1(  16)  ---------------------------------------


    POTLOK:  cpu time    0.9564: real time    0.9561
    SETDIJ:  cpu time    0.3978: real time    0.3976
     EDDAV:  cpu time   22.0422: real time   22.0877
       DOS:  cpu time    0.0009: real time    0.0009
    CHARGE:  cpu time    4.2756: real time    4.2751
    MIXING:  cpu time    0.0610: real time    0.0609
    --------------------------------------------
      LOOP:  cpu time   27.7345: real time   27.7790

 eigenvalue-minimisations  : 21400
 total energy-change (2. order) : 0.7118450E-01  (-0.2471408E-01)
 number of electron     768.0004415 magnetization      -0.0000000
 augmentation part      308.9465488 magnetization      -0.0000000

 Broyden mixing:
  rms(total) = 0.21072E+00    rms(broyden)= 0.21063E+00
  rms(prec ) = 0.21440E+00
  weight for this iteration     100.00

 eigenvalues of (default mixing * dielectric matrix)
  average eigenvalue GAMMA=   1.0182
  2.3766  1.8529  0.9910  0.9910  1.1405  0.5934  0.5934  0.7253  0.7253  0.6052
  0.6052

 Free energy of the ion-electron system (eV)
  ---------------------------------------------------
  alpha Z        PSCENC =      5395.69248661
  Ewald energy   TEWEN  =   -103725.60568214
  -Hartree energ DENC   =    -47836.13907276
  -exchange      EXHF   =         0.00000000
  -V(xc)+E(xc)   XCENC  =      5140.43160137
  PAW double counting   =    141119.30000240  -147189.69475377
  entropy T*S    EENTRO =         0.00000000
  eigenvalues    EBANDS =    -15710.98634519
  atomic energy  EATOM  =    162405.62235658
  Solvation  Ediel_sol  =         0.00000000
  ---------------------------------------------------
  free energy    TOTEN  =      -401.37940691 eV

  energy without entropy =     -401.37940691  energy(sigma->0) =     -401.37940691


--------------------------------------------------------------------------------------------------------




----------------------------------------- Iteration    1(  17)  ---------------------------------------


    POTLOK:  cpu time    0.9527: real time    0.9524
    SETDIJ:  cpu time    0.3986: real time    0.3986
     EDDAV:  cpu time   21.9785: real time   22.0072
       DOS:  cpu time    0.0009: real time    0.0009
    CHARGE:  cpu time    4.2716: real time    4.2711
    MIXING:  cpu time    0.0759: real time    0.0758
    --------------------------------------------
      LOOP:  cpu time   27.6789: real time   27.7067

 eigenvalue-minimisations  : 21632
 total energy-change (2. order) :-0.7258969E-02  (-0.5229209E-02)
 number of electron     768.0004418 magnetization      -0.0000000
 augmentation part      308.9864459 magnetization      -0.0000000

 Broyden mixing:
  rms(total) = 0.13148E+00    rms(broyden)= 0.13141E+00
  rms(prec ) = 0.13726E+00
  weight for this iteration     100.00

 eigenvalues of (default mixing * dielectric matrix)
  average eigenvalue GAMMA=   1.0672
  2.4627  2.4627  0.9916  0.9916  1.1039  1.1039  0.6014  0.6014  0.5947  0.5947
  0.6712  0.6267

 Free energy of the ion-electron system (eV)
  ---------------------------------------------------
  alpha Z        PSCENC =      5395.69248661
  Ewald energy   TEWEN  =   -103725.60568214
  -Hartree energ DENC   =    -47831.61539670
  -exchange      EXHF   =         0.00000000
  -V(xc)+E(xc)   XCENC  =      5139.62478460
  PAW double counting   =    140982.35449442  -147052.20837207
  entropy T*S    EENTRO =         0.00000000
  eigenvalues    EBANDS =    -15715.25133716
  atomic energy  EATOM  =    162405.62235658
  Solvation  Ediel_sol  =         0.00000000
  ---------------------------------------------------
  free energy    TOTEN  =      -401.38666588 eV

  energy without entropy =     -401.38666588  energy(sigma->0) =     -401.38666588


--------------------------------------------------------------------------------------------------------




----------------------------------------- Iteration    1(  18)  ---------------------------------------


    POTLOK:  cpu time    0.9622: real time    0.9618
    SETDIJ:  cpu time    0.3982: real time    0.3983
     EDDAV:  cpu time   18.3011: real time   18.3286
       DOS:  cpu time    0.0009: real time    0.0009
    CHARGE:  cpu time    4.2827: real time    4.2822
    MIXING:  cpu time    0.0742: real time    0.0743
    --------------------------------------------
      LOOP:  cpu time   24.0199: real time   24.0466

 eigenvalue-minimisations  : 16576
 total energy-change (2. order) : 0.6092623E-03  (-0.8867297E-03)
 number of electron     768.0004420 magnetization      -0.0000000
 augmentation part      309.0526374 magnetization      -0.0000000

 Broyden mixing:
  rms(total) = 0.70964E-01    rms(broyden)= 0.70952E-01
  rms(prec ) = 0.73279E-01
  weight for this iteration     100.00

 eigenvalues of (default mixing * dielectric matrix)
  average eigenvalue GAMMA=   1.0829
  3.0245  1.7445  1.7445  0.9909  0.9909  0.5971  0.5971  0.8828  0.8828  0.6299
  0.6299  0.6817  0.6817

 Free energy of the ion-electron system (eV)
  ---------------------------------------------------
  alpha Z        PSCENC =      5395.69248661
  Ewald energy   TEWEN  =   -103725.60568214
  -Hartree energ DENC   =    -47825.86630332
  -exchange      EXHF   =         0.00000000
  -V(xc)+E(xc)   XCENC  =      5139.44513485
  PAW double counting   =    140862.84625950  -146931.86649374
  entropy T*S    EENTRO =         0.00000000
  eigenvalues    EBANDS =    -15721.65381495
  atomic energy  EATOM  =    162405.62235658
  Solvation  Ediel_sol  =         0.00000000
  ---------------------------------------------------
  free energy    TOTEN  =      -401.38605661 eV

  energy without entropy =     -401.38605661  energy(sigma->0) =     -401.38605661


--------------------------------------------------------------------------------------------------------




----------------------------------------- Iteration    1(  19)  ---------------------------------------


    POTLOK:  cpu time    0.9527: real time    0.9522
    SETDIJ:  cpu time    0.3988: real time    0.3989
     EDDAV:  cpu time   21.3546: real time   21.3728
       DOS:  cpu time    0.0009: real time    0.0009
    CHARGE:  cpu time    4.2743: real time    4.2740
    MIXING:  cpu time    0.0897: real time    0.0897
    --------------------------------------------
      LOOP:  cpu time   27.0718: real time   27.0890

 eigenvalue-minimisations  : 20784
 total energy-change (2. order) :-0.1929626E-02  (-0.1173020E-02)
 number of electron     768.0004422 magnetization      -0.0000000
 augmentation part      309.1173789 magnetization      -0.0000000

 Broyden mixing:
  rms(total) = 0.35830E-01    rms(broyden)= 0.35825E-01
  rms(prec ) = 0.43235E-01
  weight for this iteration     100.00

 eigenvalues of (default mixing * dielectric matrix)
  average eigenvalue GAMMA=   1.0992
  2.7184  2.7184  0.9908  0.9908  1.3237  1.3237  0.5973  0.5973  0.7860  0.7860
  0.7785  0.5985  0.5985  0.5810

 Free energy of the ion-electron system (eV)
  ---------------------------------------------------
  alpha Z        PSCENC =      5395.69248661
  Ewald energy   TEWEN  =   -103725.60568214
  -Hartree energ DENC   =    -47823.37084891
  -exchange      EXHF   =         0.00000000
  -V(xc)+E(xc)   XCENC  =      5139.57109284
  PAW double counting   =    140785.09936337  -146853.29248142
  entropy T*S    EENTRO =         0.00000000
  eigenvalues    EBANDS =    -15725.10427317
  atomic energy  EATOM  =    162405.62235658
  Solvation  Ediel_sol  =         0.00000000
  ---------------------------------------------------
  free energy    TOTEN  =      -401.38798624 eV

  energy without entropy =     -401.38798624  energy(sigma->0) =     -401.38798624


--------------------------------------------------------------------------------------------------------




----------------------------------------- Iteration    1(  20)  ---------------------------------------


    POTLOK:  cpu time    0.9633: real time    0.9630
    SETDIJ:  cpu time    0.3998: real time    0.3997
     EDDAV:  cpu time   20.2642: real time   20.2831
       DOS:  cpu time    0.0009: real time    0.0009
    CHARGE:  cpu time    4.2553: real time    4.2551
    MIXING:  cpu time    0.0849: real time    0.0848
    --------------------------------------------
      LOOP:  cpu time   25.9690: real time   25.9872

 eigenvalue-minimisations  : 19144
 total energy-change (2. order) : 0.2512116E-03  (-0.2127189E-03)
 number of electron     768.0004421 magnetization       0.0000000
 augmentation part      309.1068728 magnetization       0.0000000

 Broyden mixing:
  rms(total) = 0.34040E-01    rms(broyden)= 0.34039E-01
  rms(prec ) = 0.38856E-01
  weight for this iteration     100.00

 eigenvalues of (default mixing * dielectric matrix)
  average eigenvalue GAMMA=   1.1326
  2.8740  2.8740  1.5489  1.5489  0.9909  0.9909  0.9381  0.9381  0.5992  0.5992
  0.5993  0.5993  0.6716  0.6084  0.6084

 Free energy of the ion-electron system (eV)
  ---------------------------------------------------
  alpha Z        PSCENC =      5395.69248661
  Ewald energy   TEWEN  =   -103725.60568214
  -Hartree energ DENC   =    -47823.55251647
  -exchange      EXHF   =         0.00000000
  -V(xc)+E(xc)   XCENC  =      5139.55450268
  PAW double counting   =    140795.94925340  -146864.18322101
  entropy T*S    EENTRO =         0.00000000
  eigenvalues    EBANDS =    -15724.86491469
  atomic energy  EATOM  =    162405.62235658
  Solvation  Ediel_sol  =         0.00000000
  ---------------------------------------------------
  free energy    TOTEN  =      -401.38773503 eV

  energy without entropy =     -401.38773503  energy(sigma->0) =     -401.38773503


--------------------------------------------------------------------------------------------------------




----------------------------------------- Iteration    1(  21)  ---------------------------------------


    POTLOK:  cpu time    0.9571: real time    0.9567
    SETDIJ:  cpu time    0.3982: real time    0.3981
     EDDAV:  cpu time   20.1968: real time   20.2069
       DOS:  cpu time    0.0009: real time    0.0009
    CHARGE:  cpu time    4.2755: real time    4.2750
    MIXING:  cpu time    0.1060: real time    0.1062
    --------------------------------------------
      LOOP:  cpu time   25.9352: real time   25.9444

 eigenvalue-minimisations  : 19112
 total energy-change (2. order) : 0.4063925E-03  (-0.4889719E-04)
 number of electron     768.0004420 magnetization      -0.0000000
 augmentation part      309.1105592 magnetization      -0.0000000

 Broyden mixing:
  rms(total) = 0.19792E-01    rms(broyden)= 0.19785E-01
  rms(prec ) = 0.22475E-01
  weight for this iteration     100.00

 eigenvalues of (default mixing * dielectric matrix)
  average eigenvalue GAMMA=   1.1924
  3.1033  3.1033  2.4301  0.9909  0.9909  0.5985  0.5985  1.0623  1.0623  1.0049
  0.7995  0.7995  0.6178  0.6178  0.6908  0.6074

 Free energy of the ion-electron system (eV)
  ---------------------------------------------------
  alpha Z        PSCENC =      5395.69248661
  Ewald energy   TEWEN  =   -103725.60568214
  -Hartree energ DENC   =    -47823.28204309
  -exchange      EXHF   =         0.00000000
  -V(xc)+E(xc)   XCENC  =      5139.51376181
  PAW double counting   =    140800.00214549  -146867.56752820
  entropy T*S    EENTRO =         0.00000000
  eigenvalues    EBANDS =    -15725.76282570
  atomic energy  EATOM  =    162405.62235658
  Solvation  Ediel_sol  =         0.00000000
  ---------------------------------------------------
  free energy    TOTEN  =      -401.38732864 eV

  energy without entropy =     -401.38732864  energy(sigma->0) =     -401.38732864


--------------------------------------------------------------------------------------------------------




----------------------------------------- Iteration    1(  22)  ---------------------------------------


    POTLOK:  cpu time    0.9661: real time    0.9658
    SETDIJ:  cpu time    0.3992: real time    0.3991
     EDDAV:  cpu time   18.2408: real time   18.2659
       DOS:  cpu time    0.0009: real time    0.0009
    CHARGE:  cpu time    4.2554: real time    4.2549
    MIXING:  cpu time    0.0966: real time    0.0967
    --------------------------------------------
      LOOP:  cpu time   23.9597: real time   23.9840

 eigenvalue-minimisations  : 16696
 total energy-change (2. order) :-0.2495054E-04  (-0.2292284E-04)
 number of electron     768.0004421 magnetization      -0.0000000
 augmentation part      309.1170017 magnetization      -0.0000000

 Broyden mixing:
  rms(total) = 0.13836E-01    rms(broyden)= 0.13835E-01
  rms(prec ) = 0.16811E-01
  weight for this iteration     100.00

 eigenvalues of (default mixing * dielectric matrix)
  average eigenvalue GAMMA=   1.1880
  3.2664  2.7133  2.7133  0.9909  0.9909  1.2070  1.2070  1.0109  1.0109  0.5984
  0.5984  0.6090  0.6090  0.7265  0.7265  0.6084  0.6084

 Free energy of the ion-electron system (eV)
  ---------------------------------------------------
  alpha Z        PSCENC =      5395.69248661
  Ewald energy   TEWEN  =   -103725.60568214
  -Hartree energ DENC   =    -47822.84805777
  -exchange      EXHF   =         0.00000000
  -V(xc)+E(xc)   XCENC  =      5139.49439549
  PAW double counting   =    140786.10741721  -146853.57083903
  entropy T*S    EENTRO =         0.00000000
  eigenvalues    EBANDS =    -15726.27943053
  atomic energy  EATOM  =    162405.62235658
  Solvation  Ediel_sol  =         0.00000000
  ---------------------------------------------------
  free energy    TOTEN  =      -401.38735359 eV

  energy without entropy =     -401.38735359  energy(sigma->0) =     -401.38735359


--------------------------------------------------------------------------------------------------------




----------------------------------------- Iteration    1(  23)  ---------------------------------------


    POTLOK:  cpu time    0.9538: real time    0.9535
    SETDIJ:  cpu time    0.3986: real time    0.3985
     EDDAV:  cpu time   18.2716: real time   18.2896
       DOS:  cpu time    0.0009: real time    0.0009
    CHARGE:  cpu time    4.2822: real time    4.2819
    MIXING:  cpu time    0.1024: real time    0.1025
    --------------------------------------------
      LOOP:  cpu time   24.0101: real time   24.0275

 eigenvalue-minimisations  : 16400
[...]
   -.383E-13 0.112E-10 -.141E-10   -.144E-12 0.302E-13 -.117E-13   -.860E-22 -.101E-21 0.311E-21   -.124E-11 -.959E-13 -.722E-12
   0.165E-11 -.359E-10 0.136E-10   -.105E-12 0.284E-13 -.917E-13   -.463E-22 0.211E-21 -.918E-22   0.123E-11 0.233E-12 0.192E-11
   0.546E-12 0.545E-12 0.121E-12   -.107E-12 -.114E-12 0.451E-13   -.627E-22 0.129E-21 -.225E-21   0.129E-11 0.421E-15 -.545E-12
   0.106E-11 0.713E-11 -.228E-11   -.353E-13 -.114E-12 -.349E-13   0.463E-22 -.163E-21 -.132E-22   -.216E-12 0.229E-12 0.172E-11
   0.162E-11 0.492E-12 -.541E-10   0.111E-13 -.923E-13 -.142E-13   0.175E-21 0.158E-21 0.926E-22   0.129E-11 0.603E-13 0.578E-12
   0.662E-12 0.799E-12 0.797E-12   -.711E-14 -.355E-13 -.149E-12   -.116E-22 -.290E-21 -.893E-22   0.105E-11 0.399E-12 -.153E-11
   0.101E-11 -.898E-11 0.944E-11   0.497E-13 -.118E-12 -.185E-12   -.208E-21 -.124E-22 0.179E-21   -.941E-13 0.987E-13 0.157E-12
   0.128E-12 -.741E-11 0.118E-10   0.711E-13 0.711E-14 -.149E-12   -.114E-21 -.496E-22 0.397E-22   -.144E-11 0.247E-12 -.153E-11
   0.748E-12 -.331E-13 0.794E-12   0.185E-12 -.182E-12 -.113E-12   0.860E-22 -.165E-21 0.993E-23   0.948E-12 0.171E-12 0.203E-11
   0.112E-11 0.176E-12 -.114E-10   0.171E-12 -.639E-13 -.225E-12   -.175E-21 -.145E-23 -.169E-21   -.258E-12 0.331E-12 -.105E-11
   0.135E-13 0.424E-12 -.598E-10   0.114E-12 -.108E-12 -.170E-12   0.119E-21 0.199E-22 -.258E-21   -.123E-11 -.541E-13 0.183E-11
   0.173E-11 0.735E-12 -.191E-10   0.129E-12 -.977E-13 -.253E-12   0.100E-21 -.165E-21 -.331E-22   0.110E-11 0.336E-12 -.523E-12
   0.981E-12 0.484E-12 0.157E-10   0.298E-12 -.853E-13 -.227E-12   -.210E-21 -.248E-22 0.529E-22   -.263E-13 -.484E-13 -.150E-11
   0.459E-13 0.129E-11 0.285E-11   0.291E-12 -.853E-13 -.341E-12   -.132E-22 0.165E-21 0.794E-22   -.128E-11 0.264E-12 0.215E-12
   0.157E-11 -.955E-11 -.843E-11   0.352E-12 -.223E-12 -.284E-12   -.662E-23 0.265E-22 0.112E-21   0.141E-11 0.143E-12 -.139E-11
   0.815E-12 0.152E-11 0.140E-11   0.355E-12 -.107E-12 -.256E-12   0.172E-21 -.245E-21 0.185E-21   0.960E-12 0.408E-12 0.376E-12
   0.122E-12 -.180E-11 0.990E-12   -.764E-13 0.142E-13 0.853E-13   -.215E-22 -.314E-22 0.000E+00   -.342E-12 -.568E-14 -.546E-12
   -.353E-13 0.571E-11 0.491E-11   -.764E-13 0.252E-13 -.506E-13   0.232E-22 0.463E-22 -.678E-22   -.481E-12 -.333E-13 0.414E-12
   0.423E-12 -.802E-11 0.117E-10   -.195E-13 0.666E-13 0.293E-13   0.372E-23 -.331E-22 -.116E-22   0.425E-12 -.669E-13 -.520E-12
   0.180E-12 0.373E-12 0.376E-12   -.639E-13 -.568E-13 -.497E-13   0.101E-21 -.397E-22 -.165E-23   0.399E-12 -.717E-13 0.423E-12
   0.638E-13 0.550E-11 0.423E-11   -.400E-13 0.533E-14 0.746E-13   -.265E-22 0.281E-22 0.662E-23   -.574E-12 0.300E-13 -.303E-12
   0.383E-12 0.329E-12 0.220E-11   -.383E-13 0.151E-13 -.637E-13   0.199E-22 0.000E+00 0.232E-22   0.459E-12 -.343E-13 0.819E-12
   0.243E-12 0.632E-14 0.257E-12   -.338E-13 -.711E-13 0.160E-13   -.364E-22 -.265E-22 -.463E-22   0.352E-12 0.858E-14 -.314E-12
   0.116E-12 0.933E-12 -.105E-10   -.266E-13 -.584E-13 -.628E-13   -.744E-23 0.245E-22 -.159E-22   -.320E-12 -.121E-13 0.835E-12
   0.455E-12 0.159E-10 -.821E-11   -.663E-14 0.115E-13 0.870E-13   0.199E-22 0.281E-22 0.244E-22   0.438E-12 -.122E-13 0.383E-12
   0.182E-12 0.170E-12 0.112E-12   -.444E-14 0.299E-13 -.862E-13   0.447E-22 -.314E-22 0.649E-22   0.413E-12 -.115E-13 -.495E-12
   0.131E-12 -.769E-12 0.225E-11   0.569E-13 -.568E-13 0.284E-13   -.265E-22 -.662E-22 -.281E-22   -.343E-12 0.405E-13 0.346E-12
   0.101E-13 0.330E-12 0.190E-10   0.711E-13 -.453E-13 -.171E-12   -.579E-23 -.414E-22 0.157E-22   -.540E-12 -.996E-13 -.442E-12
   0.239E-12 0.369E-12 0.482E-12   0.213E-13 0.355E-13 0.763E-13   0.159E-22 -.620E-23 -.662E-23   0.380E-12 -.343E-13 0.761E-12
   0.635E-13 0.339E-12 -.943E-11   0.782E-13 0.356E-13 -.945E-13   -.182E-22 -.165E-22 0.364E-22   -.264E-12 -.720E-13 -.276E-12
   0.397E-13 0.181E-10 -.118E-10   0.853E-13 0.711E-13 0.133E-13   -.298E-22 -.529E-22 0.232E-22   -.529E-12 -.468E-13 0.783E-12
   0.358E-12 0.508E-11 -.110E-11   0.427E-13 0.785E-13 -.186E-12   0.472E-22 0.331E-23 -.331E-23   0.538E-12 -.305E-13 -.221E-12
   0.380E-12 0.170E-11 -.451E-11   0.140E-12 0.142E-13 0.266E-14   0.265E-22 0.132E-22 -.496E-22   0.475E-12 -.115E-12 0.417E-12
   0.216E-12 0.318E-12 0.167E-12   0.128E-12 0.142E-13 0.711E-13   0.108E-22 0.633E-22 -.141E-22   0.388E-12 -.340E-13 -.544E-12
   0.688E-13 0.397E-11 0.238E-11   0.710E-13 0.568E-13 -.568E-13   0.215E-22 0.298E-22 -.381E-22   -.296E-12 -.761E-13 0.400E-12
   0.550E-13 0.486E-11 0.829E-11   0.933E-13 0.441E-13 0.782E-13   0.761E-22 0.000E+00 -.513E-22   -.588E-12 0.211E-13 -.510E-12
   0.205E-12 0.731E-13 0.439E-12   0.206E-12 0.355E-13 -.142E-13   0.199E-22 0.629E-22 0.132E-22   0.385E-12 -.583E-13 0.806E-12
   0.168E-12 0.971E-12 0.596E-12   0.199E-12 0.502E-13 0.646E-13   -.331E-22 -.298E-22 0.662E-23   -.362E-12 0.450E-13 -.356E-12
   0.906E-14 0.271E-11 -.120E-10   0.149E-12 0.853E-13 -.728E-13   0.141E-22 -.827E-23 -.346E-23   -.525E-12 -.242E-13 0.854E-12
   0.457E-12 0.284E-12 -.149E-11   0.185E-12 0.711E-13 0.654E-13   0.323E-22 -.422E-22 0.182E-22   0.380E-12 0.202E-14 -.259E-12
   0.845E-13 0.431E-11 0.248E-11   0.192E-12 -.711E-14 -.355E-13   -.562E-22 0.471E-22 0.463E-22   -.287E-12 -.295E-13 -.477E-12
   0.448E-13 0.280E-12 0.325E-11   0.199E-12 0.360E-14 0.178E-12   0.232E-22 -.100E-21 -.215E-22   -.549E-12 -.389E-13 0.361E-12
   0.401E-12 0.486E-11 -.127E-11   0.245E-12 0.391E-13 -.941E-13   0.761E-22 -.331E-22 0.662E-22   0.484E-12 -.636E-13 -.489E-12
   0.272E-12 -.148E-12 -.123E-12   0.275E-12 0.261E-13 0.790E-13   -.835E-22 -.116E-22 -.430E-22   0.313E-12 0.354E-13 0.333E-12
   0.206E-14 0.742E-11 0.822E-11   0.258E-12 0.213E-13 -.381E-13   -.108E-22 0.265E-22 0.223E-22   -.495E-12 -.101E-12 -.252E-12
   0.410E-12 -.963E-12 0.130E-10   0.248E-12 0.287E-13 0.156E-12   -.397E-22 0.662E-23 0.000E+00   0.493E-12 -.142E-14 0.759E-12
   0.184E-12 -.137E-12 -.714E-13   0.181E-12 0.568E-13 -.991E-13   -.993E-23 0.000E+00 0.728E-22   0.426E-12 -.101E-12 -.270E-12
   0.137E-12 0.285E-12 -.295E-12   0.192E-12 0.507E-13 0.639E-13   0.463E-22 0.232E-22 0.199E-22   -.338E-12 -.145E-13 0.781E-12
 -----------------------------------------------------------------------------------------------
   0.333E-10 0.106E-09 -.607E-10   0.306E-12 0.572E-14 0.125E-13   0.272E-21 -.861E-21 -.376E-22   0.698E-11 0.425E-11 0.349E-11
 
 
 POSITION                                       TOTAL-FORCE (eV/Angst)
 -----------------------------------------------------------------------------------
      0.00000      0.00000      0.00000        -0.000000     -0.000000      0.000000
      2.09453      2.09453      4.18906         0.000000      0.000000     -0.000000
      4.18906      4.18906      0.00000         0.000000      0.000000      0.000000
      6.28359      6.28359      4.18906         0.000000     -0.000000     -0.000000
      2.09453      4.18906      2.09453         0.000000     -0.000000     -0.000000
      4.18906      6.28359      6.28359         0.000000      0.000000     -0.000000
      6.28359      0.00000      2.09453        -0.000000     -0.000000      0.000000
      0.00000      2.09453      6.28359         0.000000      0.000000      0.000000
      4.18906      0.00000      4.18906        -0.000000      0.000000      0.000000
      6.28359      2.09453      0.00000         0.000000      0.000000     -0.000000
      0.00000      4.18906      4.18906        -0.000000      0.000000      0.000000
      2.09453      6.28359      0.00000        -0.000000      0.000000      0.000000
      6.28359      4.18906      6.28359         0.000000      0.000000      0.000000
      0.00000      6.28359      2.09453         0.000000      0.000000     -0.000000
      2.09453      0.00000      6.28359         0.000000      0.000000      0.000000
      4.18906      2.09453      2.09453        -0.000000      0.000000     -0.000000
      4.18906      4.18906      4.18906        -0.000000     -0.000000     -0.000000
      6.28359      6.28359      0.00000        -0.000000     -0.000000      0.000000
      0.00000      0.00000      4.18906         0.000000     -0.000000     -0.000000
      2.09453      2.09453      0.00000        -0.000000     -0.000000     -0.000000
      6.28359      0.00000      6.28359         0.000000      0.000000      0.000000
      0.00000      2.09453      2.09453        -0.000000     -0.000000     -0.000000
      2.09453      4.18906      6.28359         0.000000      0.000000      0.000000
      4.18906      6.28359      2.09453         0.000000     -0.000000     -0.000000
      0.00000      4.18906      0.00000        -0.000000     -0.000000     -0.000000
      2.09453      6.28359      4.18906        -0.000000      0.000000      0.000000
      4.18906      0.00000      0.00000        -0.000000      0.000000      0.000000
      6.28359      2.09453      4.18906        -0.000000      0.000000      0.000000
      2.09453      0.00000      2.09453         0.000000     -0.000000      0.000000
      4.18906      2.09453      6.28359         0.000000     -0.000000      0.000000
      6.28359      4.18906      2.09453         0.000000     -0.000000     -0.000000
      0.00000      6.28359      6.28359        -0.000000      0.000000      0.000000
      2.09453      2.09453      2.09453         0.000000      0.000000     -0.000000
      4.18906      4.18906      6.28359        -0.000000      0.000000      0.000000
      6.28359      6.28359      2.09453         0.000000      0.000000     -0.000000
      0.00000      0.00000      6.28359        -0.000000      0.000000      0.000000
      4.18906      6.28359      4.18906        -0.000000     -0.000000      0.000000
      6.28359      0.00000      0.00000         0.000000      0.000000      0.000000
      0.00000      2.09453      4.18906        -0.000000      0.000000     -0.000000
      2.09453      4.18906      0.00000         0.000000      0.000000      0.000000
      6.28359      2.09453      6.28359        -0.000000     -0.000000      0.000000
      0.00000      4.18906      2.09453         0.000000      0.000000     -0.000000
      2.09453      6.28359      6.28359        -0.000000     -0.000000      0.000000
      4.18906      0.00000      2.09453         0.000000      0.000000     -0.000000
      0.00000      6.28359      0.00000         0.000000     -0.000000      0.000000
      2.09453      0.00000      4.18906        -0.000000     -0.000000      0.000000
      4.18906      2.09453      0.00000         0.000000      0.000000      0.000000
      6.28359      4.18906      4.18906         0.000000     -0.000000     -0.000000
      6.28359      6.28359      6.28359        -0.000000      0.000000      0.000000
      0.00000      0.00000      2.09453         0.000000     -0.000000     -0.000000
      2.09453      2.09453      6.28359        -0.000000      0.000000      0.000000
      4.18906      4.18906      2.09453         0.000000      0.000000     -0.000000
      0.00000      2.09453      0.00000        -0.000000      0.000000      0.000000
      2.09453      4.18906      4.18906        -0.000000     -0.000000     -0.000000
      4.18906      6.28359      0.00000         0.000000      0.000000     -0.000000
      6.28359      0.00000      4.18906        -0.000000      0.000000     -0.000000
      2.09453      6.28359      2.09453         0.000000     -0.000000     -0.000000
      4.18906      0.00000      6.28359        -0.000000     -0.000000      0.000000
      6.28359      2.09453      2.09453         0.000000     -0.000000     -0.000000
      0.00000      4.18906      6.28359        -0.000000      0.000000      0.000000
      4.18906      2.09453      4.18906        -0.000000      0.000000      0.000000
      6.28359      4.18906      0.00000         0.000000     -0.000000      0.000000
      0.00000      6.28359      4.18906         0.000000      0.000000      0.000000
      2.09453      0.00000      0.00000         0.000000     -0.000000      0.000000
 -----------------------------------------------------------------------------------
    total drift:                                0.000000      0.000000     -0.000000


--------------------------------------------------------------------------------------------------------



  FREE ENERGIE OF THE ION-ELECTRON SYSTEM (eV)
  ---------------------------------------------------
  free  energy   TOTEN  =      -401.38723082 eV

  energy  without entropy=     -401.38723082  energy(sigma->0) =     -401.38723082
 


--------------------------------------------------------------------------------------------------------


    POTLOK:  cpu time    1.3515: real time    1.3511


--------------------------------------------------------------------------------------------------------


 writing wavefunctions
     LOOP+:  cpu time  668.3576: real time  669.0034
    4ORBIT:  cpu time    0.0000: real time    0.0000
 


 total charge     
 
# of ion       s       p       d       f       tot
--------------------------------------------------
    1        2.149   6.212   7.812   0.009  16.182
    2        2.149   6.212   7.812   0.009  16.182
    3        2.149   6.212   7.812   0.009  16.182
    4        2.149   6.212   7.812   0.009  16.182
    5        2.149   6.212   7.812   0.009  16.182
    6        2.149   6.212   7.812   0.009  16.182
    7        2.149   6.212   7.812   0.009  16.182
    8        2.149   6.212   7.812   0.009  16.182
    9        2.149   6.212   7.812   0.009  16.182
   10        2.149   6.212   7.812   0.009  16.182
   11        2.149   6.212   7.812   0.009  16.182
   12        2.149   6.212   7.812   0.009  16.182
   13        2.149   6.212   7.812   0.009  16.182
   14        2.149   6.212   7.812   0.009  16.182
   15        2.149   6.212   7.812   0.009  16.182
   16        2.149   6.212   7.812   0.009  16.182
   17        2.149   6.212   7.812   0.009  16.182
   18        2.149   6.212   7.812   0.009  16.182
   19        2.149   6.212   7.812   0.009  16.182
   20        2.149   6.212   7.812   0.009  16.182
   21        2.149   6.212   7.812   0.009  16.182
   22        2.149   6.212   7.812   0.009  16.182
   23        2.149   6.212   7.812   0.009  16.182
   24        2.149   6.212   7.812   0.009  16.182
   25        2.149   6.212   7.812   0.009  16.182
   26        2.149   6.212   7.812   0.009  16.182
   27        2.149   6.212   7.812   0.009  16.182
   28        2.149   6.212   7.812   0.009  16.182
   29        2.149   6.212   7.812   0.009  16.182
   30        2.149   6.212   7.812   0.009  16.182
   31        2.149   6.212   7.812   0.009  16.182
   32        2.149   6.212   7.812   0.009  16.182
   33        1.627   3.541   0.018   0.000   5.186
   34        1.627   3.541   0.018   0.000   5.187
   35        1.627   3.541   0.018   0.000   5.186
   36        1.627   3.541   0.018   0.000   5.187
   37        1.627   3.541   0.018   0.000   5.187
   38        1.627   3.541   0.018   0.000   5.187
   39        1.627   3.541   0.018   0.000   5.187
   40        1.627   3.541   0.018   0.000   5.187
   41        1.627   3.541   0.018   0.000   5.186
   42        1.627   3.541   0.018   0.000   5.187
   43        1.627   3.541   0.018   0.000   5.186
   44        1.627   3.541   0.018   0.000   5.187
   45        1.627   3.541   0.018   0.000   5.187
   46        1.627   3.541   0.018   0.000   5.187
   47        1.627   3.541   0.018   0.000   5.187
   48        1.627   3.541   0.018   0.000   5.187
   49        1.627   3.541   0.018   0.000   5.186
   50        1.627   3.541   0.018   0.000   5.187
   51        1.627   3.541   0.018   0.000   5.186
   52        1.627   3.541   0.018   0.000   5.187
   53        1.627   3.541   0.018   0.000   5.187
   54        1.627   3.541   0.018   0.000   5.187
   55        1.627   3.541   0.018   0.000   5.187
   56        1.627   3.541   0.018   0.000   5.187
   57        1.627   3.541   0.018   0.000   5.186
   58        1.627   3.541   0.018   0.000   5.187
   59        1.627   3.541   0.018   0.000   5.186
   60        1.627   3.541   0.018   0.000   5.187
   61        1.627   3.541   0.018   0.000   5.187
   62        1.627   3.541   0.018   0.000   5.187
   63        1.627   3.541   0.018   0.000   5.187
   64        1.627   3.541   0.018   0.000   5.187
--------------------------------------------------
tot        120.828 312.111 250.566   0.289 683.793

 


 magnetization (x)
 
# of ion       s       p       d       f       tot
--------------------------------------------------
    1       -0.003  -0.007   1.327   0.000   1.318
    2       -0.003  -0.007   1.327   0.000   1.318
    3       -0.003  -0.007   1.327   0.000   1.318
    4       -0.003  -0.007   1.327   0.000   1.318
    5       -0.003  -0.007   1.327   0.000   1.318
    6       -0.003  -0.007   1.327   0.000   1.318
    7       -0.003  -0.007   1.327   0.000   1.318
    8       -0.003  -0.007   1.327   0.000   1.318
    9       -0.003  -0.007   1.327   0.000   1.318
   10       -0.003  -0.007   1.327   0.000   1.318
   11       -0.003  -0.007   1.327   0.000   1.318
   12       -0.003  -0.007   1.327   0.000   1.318
   13       -0.003  -0.007   1.327   0.000   1.318
   14       -0.003  -0.007   1.327   0.000   1.318
   15       -0.003  -0.007   1.327   0.000   1.318
   16       -0.003  -0.007   1.327   0.000   1.318
   17        0.003   0.007  -1.327  -0.000  -1.318
   18        0.003   0.007  -1.327  -0.000  -1.318
   19        0.003   0.007  -1.327  -0.000  -1.318
   20        0.003   0.007  -1.327  -0.000  -1.318
   21        0.003   0.007  -1.327  -0.000  -1.318
   22        0.003   0.007  -1.327  -0.000  -1.318
   23        0.003   0.007  -1.327  -0.000  -1.318
   24        0.003   0.007  -1.327  -0.000  -1.318
   25        0.003   0.007  -1.327  -0.000  -1.318
   26        0.003   0.007  -1.327  -0.000  -1.318
   27        0.003   0.007  -1.327  -0.000  -1.318
   28        0.003   0.007  -1.327  -0.000  -1.318
   29        0.003   0.007  -1.327  -0.000  -1.318
   30        0.003   0.007  -1.327  -0.000  -1.318
   31        0.003   0.007  -1.327  -0.000  -1.318
   32        0.003   0.007  -1.327  -0.000  -1.318
   33        0.000  -0.000  -0.000   0.000  -0.000
   34        0.000   0.000   0.000   0.000   0.000
   35        0.000  -0.000   0.000   0.000  -0.000
   36        0.000  -0.000   0.000   0.000  -0.000
   37        0.000  -0.000   0.000   0.000   0.000
   38        0.000  -0.000   0.000   0.000   0.000
   39        0.000  -0.000  -0.000   0.000  -0.000
   40        0.000   0.000  -0.000   0.000   0.000
   41        0.000   0.000  -0.000   0.000   0.000
   42        0.000   0.000  -0.000   0.000   0.000
   43        0.000  -0.000   0.000   0.000   0.000
   44        0.000  -0.000   0.000   0.000  -0.000
   45        0.000  -0.000  -0.000   0.000  -0.000
   46        0.000  -0.000   0.000   0.000   0.000
   47        0.000  -0.000   0.000   0.000  -0.000
   48        0.000  -0.000  -0.000   0.000  -0.000
   49        0.000  -0.000   0.000   0.000   0.000
   50        0.000  -0.000   0.000   0.000  -0.000
   51        0.000   0.000   0.000   0.000   0.000
   52        0.000  -0.000   0.000   0.000  -0.000
   53        0.000  -0.000   0.000   0.000  -0.000
   54        0.000  -0.000  -0.000   0.000  -0.000
   55        0.000  -0.000   0.000   0.000  -0.000
   56        0.000  -0.000   0.000   0.000  -0.000
   57        0.000  -0.000  -0.000   0.000   0.000
   58        0.000  -0.000   0.000   0.000   0.000
   59        0.000  -0.000   0.000   0.000  -0.000
   60        0.000  -0.000  -0.000   0.000   0.000
   61        0.000  -0.000   0.000   0.000   0.000
   62        0.000  -0.000   0.000   0.000   0.000
   63        0.000  -0.000  -0.000   0.000  -0.000
   64        0.000   0.000   0.000   0.000   0.000
--------------------------------------------------
tot          0.000  -0.000  -0.000  -0.000  -0.000

 
