 vasp.5.4.4.18Apr17-6-g9f103f2a35 (build Oct 10 2019 09:51:33) complex          
  
 executed on   carbon_intel19_gpu date 2020.09.25  16:44:14
 running on    1 total cores
 distrk:  each k-point on    1 cores,    1 groups
 distr:  one band on NCORES_PER_BAND=   1 cores,    1 groups


--------------------------------------------------------------------------------------------------------


 INCAR:
 POTCAR:    PAW_PBE Ni_sv_GW 05Dec2013            
 POTCAR:    PAW_PBE O_GW 19Mar2012                
 POTCAR:    PAW_PBE Ni_sv_GW 05Dec2013            
   VRHFIN =Ni:                                                                  
   LEXCH  = PE                                                                  
   EATOM  =  4642.8712 eV,  341.2414 Ry                                         
                                                                                
   TITEL  = PAW_PBE Ni_sv_GW 05Dec2013                                          
   LULTRA =        F    use ultrasoft PP ?                                      
   IUNSCR =        1    unscreen: 0-lin 1-nonlin 2-no                           
   RPACOR =    1.400    partial core radius                                     
   POMASS =   58.690; ZVAL   =   18.000    mass and valenz                      
   RCORE  =    1.900    outmost cutoff radius                                   
   RWIGS  =    2.100; RWIGS  =    1.111    wigner-seitz radius (au A)           
   ENMAX  =  389.645; ENMIN  =  292.234 eV                                      
   RCLOC  =    1.301    cutoff for local pot                                    
   LCOR   =        T    correct aug charges                                     
   LPAW   =        T    paw PP                                                  
   EAUG   = 1036.387                                                            
   RMAX   =    1.945    core radius for proj-oper                               
   RAUG   =    1.300    factor for augmentation sphere                          
   RDEP   =    1.972    radius for radial grids                                 
   RDEPT  =    1.600    core radius for aug-charge                              
                                                                                
   Atomic configuration                                                         
    8 entries                                                                   
     n  l   j            E        occ.                                          
     1  0  0.50     -8203.3308   2.0000                                         
     2  0  0.50      -972.7019   2.0000                                         
     2  1  1.50      -835.6236   6.0000                                         
     3  0  0.50      -102.6944   2.0000                                         
     3  1  1.50       -63.2363   6.0000                                         
     3  1  1.50       -68.0291   0.0000                                         
     3  2  2.50        -1.9692  10.0000                                         
     4  3  2.50        -1.3606   0.0000                                         
   Description                                                                  
     l       E           TYP  RCUT    TYP  RCUT                                 
     0   -102.6944069     23  1.400                                             
     0      1.3605826     23  1.700                                             
     0    204.0873900     23  1.400                                             
     1    -63.2363356     23  1.650                                             
     1    -68.0291300     23  1.650                                             
     1    136.0582600     23  1.650                                             
     2     -1.9691936     23  1.900                                             
     2     27.2116520     23  1.900                                             
     2    136.0582600     23  1.900                                             
     3     27.2116520     23  1.900                                             
     3    136.0582600     23  1.900                                             
  local pseudopotential read in
  partial core-charges read in
  partial kinetic energy density read in
  kinetic energy density of atom read in
  atomic valenz-charges read in
  non local Contribution for L=           0  read in
    real space projection operators read in
  non local Contribution for L=           0  read in
    real space projection operators read in
  non local Contribution for L=           0  read in
    real space projection operators read in
  non local Contribution for L=           1  read in
    real space projection operators read in
  non local Contribution for L=           1  read in
    real space projection operators read in
  non local Contribution for L=           1  read in
    real space projection operators read in
  non local Contribution for L=           2  read in
    real space projection operators read in
  non local Contribution for L=           2  read in
    real space projection operators read in
  non local Contribution for L=           2  read in
    real space projection operators read in
  non local Contribution for L=           3  read in
    real space projection operators read in
  non local Contribution for L=           3  read in
    real space projection operators read in
    PAW grid and wavefunctions read in
 
   number of l-projection  operators is LMAX  =          11
   number of lm-projection operators is LMMAX =          41
 
 POTCAR:    PAW_PBE O_GW 19Mar2012                
   VRHFIN =O: s2p4                                                              
   LEXCH  = PE                                                                  
   EATOM  =   432.3788 eV,   31.7789 Ry                                         
                                                                                
   TITEL  = PAW_PBE O_GW 19Mar2012                                              
   LULTRA =        F    use ultrasoft PP ?                                      
   IUNSCR =        1    unscreen: 0-lin 1-nonlin 2-no                           
   RPACOR =    0.800    partial core radius                                     
   POMASS =   16.000; ZVAL   =    6.000    mass and valenz                      
   RCORE  =    1.600    outmost cutoff radius                                   
   RWIGS  =    1.600; RWIGS  =    0.847    wigner-seitz radius (au A)           
   ENMAX  =  434.431; ENMIN  =  325.824 eV                                      
   ICORE  =        3    local potential                                         
   LCOR   =        T    correct aug charges                                     
   LPAW   =        T    paw PP                                                  
   EAUG   = 1139.609                                                            
   DEXC   =    0.000                                                            
   RMAX   =    1.629    core radius for proj-oper                               
   RAUG   =    1.300    factor for augmentation sphere                          
   RDEP   =    1.652    radius for radial grids                                 
   RDEPT  =    1.200    core radius for aug-charge                              
                                                                                
   Atomic configuration                                                         
    5 entries                                                                   
     n  l   j            E        occ.                                          
     1  0  0.50      -514.6923   2.0000                                         
     2  0  0.50       -23.9615   2.0000                                         
     2  1  0.50        -9.0305   4.0000                                         
     3  2  1.50        -9.5241   0.0000                                         
     4  3  2.50        -9.5241   0.0000                                         
   Description                                                                  
     l       E           TYP  RCUT    TYP  RCUT                                 
     0    -23.9615316     23  1.150                                             
     0    -25.3221142     23  1.150                                             
     0    244.9048680     23  1.300                                             
     1     -9.0304908     23  1.500                                             
     1     -6.9258396     23  1.500                                             
     1    122.4524340     23  1.500                                             
     2     13.6058260     23  1.500                                             
     2    190.4815640     23  1.600                                             
     3     54.4233040     23  1.400                                             
  local pseudopotential read in
  partial core-charges read in
  partial kinetic energy density read in
  kinetic energy density of atom read in
  atomic valenz-charges read in
  non local Contribution for L=           0  read in
    real space projection operators read in
  non local Contribution for L=           0  read in
    real space projection operators read in
  non local Contribution for L=           0  read in
    real space projection operators read in
  non local Contribution for L=           1  read in
    real space projection operators read in
  non local Contribution for L=           1  read in
    real space projection operators read in
  non local Contribution for L=           1  read in
    real space projection operators read in
  non local Contribution for L=           2  read in
    real space projection operators read in
  non local Contribution for L=           2  read in
    real space projection operators read in
    PAW grid and wavefunctions read in
 
   number of l-projection  operators is LMAX  =           8
   number of lm-projection operators is LMMAX =          22
 
 Optimization of the real space projectors (new method)

 maximal supplied QI-value         = 19.84
 optimisation between [QCUT,QGAM] = [ 12.50, 25.00] = [ 43.76,175.03] Ry 
 Optimized for a Real-space Cutoff    1.31 Angstroem

   l    n(q)    QCUT    max X(q) W(low)/X(q) W(high)/X(q)  e(spline) 
   0     10    12.501     2.300    0.65E-05    0.25E-06    0.79E-07
   0     10    12.501     7.576    0.25E-04    0.52E-05    0.18E-06
   0     10    12.501     1.388    0.34E-04    0.75E-05    0.48E-06
   1      9    12.501    11.002    0.11E-03    0.24E-03    0.54E-06
   1      9    12.501    14.537    0.90E-04    0.23E-03    0.70E-06
   1      9    12.501     3.893    0.34E-04    0.51E-04    0.68E-06
   2      9    12.501    14.869    0.32E-03    0.35E-03    0.49E-06
   2      9    12.501     7.291    0.12E-03    0.20E-03    0.30E-06
   2      9    12.501     6.907    0.35E-03    0.37E-03    0.52E-06
   3      8    12.501    10.598    0.33E-03    0.15E-03    0.57E-06
   3      8    12.501     2.997    0.28E-03    0.16E-03    0.51E-06
 Optimization of the real space projectors (new method)

 maximal supplied QI-value         = 23.62
 optimisation between [QCUT,QGAM] = [ 12.52, 25.04] = [ 43.89,175.56] Ry 
 Optimized for a Real-space Cutoff    1.35 Angstroem

   l    n(q)    QCUT    max X(q) W(low)/X(q) W(high)/X(q)  e(spline) 
   0     10    12.519   116.464    0.13E-03    0.15E-03    0.46E-05
   0     10    12.519   116.329    0.13E-03    0.15E-03    0.44E-05
   0     10    12.519     0.942    0.35E-04    0.90E-04    0.23E-05
   1     10    12.519   133.003    0.28E-03    0.77E-04    0.26E-05
   1     10    12.519   116.443    0.28E-03    0.76E-04    0.26E-05
   1     10    12.519     2.481    0.45E-03    0.95E-04    0.45E-05
   2      9    12.519     2.237    0.21E-04    0.33E-04    0.21E-06
   2      9    12.519     2.497    0.16E-03    0.12E-03    0.32E-06
  PAW_PBE Ni_sv_GW 05Dec2013            :
 energy of atom  1       EATOM=-4642.8712
 kinetic energy error for atom=    0.0555 (will be added to EATOM!!)
  PAW_PBE O_GW 19Mar2012                :
 energy of atom  2       EATOM= -432.3788
 kinetic energy error for atom=    0.0188 (will be added to EATOM!!)
 
 
 POSCAR: NiO                                     
  positions in direct lattice
  No initial velocities read in
 exchange correlation table for  LEXCH =        8
   RHO(1)=    0.500       N(1)  =     2000
   RHO(2)=  100.500       N(2)  =     4000
 


--------------------------------------------------------------------------------------------------------


 ion  position               nearest neighbor table
   1  0.000  0.000  0.000-  41 2.09  42 2.09  49 2.09  51 2.09  57 2.09  61 2.09
   2  0.000  0.000  0.500-  41 2.09  42 2.09  50 2.09  52 2.09  58 2.09  62 2.09
   3  0.000  0.500  0.000-  43 2.09  44 2.09  49 2.09  51 2.09  59 2.09  63 2.09
   4  0.000  0.500  0.500-  43 2.09  44 2.09  50 2.09  52 2.09  60 2.09  64 2.09
   5  0.500  0.000  0.000-  45 2.09  46 2.09  53 2.09  55 2.09  57 2.09  61 2.09
   6  0.500  0.000  0.500-  45 2.09  46 2.09  54 2.09  56 2.09  58 2.09  62 2.09
   7  0.500  0.500  0.000-  47 2.09  48 2.09  53 2.09  55 2.09  59 2.09  63 2.09
   8  0.500  0.500  0.500-  47 2.09  48 2.09  54 2.09  56 2.09  60 2.09  64 2.09
   9  0.250  0.250  0.000-  33 2.09  34 2.09  49 2.09  53 2.09  57 2.09  59 2.09
  10  0.250  0.250  0.500-  33 2.09  34 2.09  50 2.09  54 2.09  58 2.09  60 2.09
  11  0.250  0.750  0.000-  35 2.09  36 2.09  51 2.09  55 2.09  57 2.09  59 2.09
  12  0.250  0.750  0.500-  35 2.09  36 2.09  52 2.09  56 2.09  58 2.09  60 2.09
  13  0.750  0.250  0.000-  37 2.09  38 2.09  49 2.09  53 2.09  61 2.09  63 2.09
  14  0.750  0.250  0.500-  37 2.09  38 2.09  50 2.09  54 2.09  62 2.09  64 2.09
  15  0.750  0.750  0.000-  39 2.09  40 2.09  51 2.09  55 2.09  61 2.09  63 2.09
  16  0.750  0.750  0.500-  39 2.09  40 2.09  52 2.09  56 2.09  62 2.09  64 2.09
  17  0.250  0.000  0.250-  33 2.09  35 2.09  41 2.09  45 2.09  57 2.09  58 2.09
  18  0.250  0.000  0.750-  34 2.09  36 2.09  42 2.09  46 2.09  57 2.09  58 2.09
  19  0.250  0.500  0.250-  33 2.09  35 2.09  43 2.09  47 2.09  59 2.09  60 2.09
  20  0.250  0.500  0.750-  34 2.09  36 2.09  44 2.09  48 2.09  59 2.09  60 2.09
  21  0.750  0.000  0.250-  37 2.09  39 2.09  41 2.09  45 2.09  61 2.09  62 2.09
  22  0.750  0.000  0.750-  38 2.09  40 2.09  42 2.09  46 2.09  61 2.09  62 2.09
  23  0.750  0.500  0.250-  37 2.09  39 2.09  43 2.09  47 2.09  63 2.09  64 2.09
  24  0.750  0.500  0.750-  38 2.09  40 2.09  44 2.09  48 2.09  63 2.09  64 2.09
  25  0.000  0.250  0.250-  33 2.09  37 2.09  41 2.09  43 2.09  49 2.09  50 2.09
  26  0.000  0.250  0.750-  34 2.09  38 2.09  42 2.09  44 2.09  49 2.09  50 2.09
  27  0.000  0.750  0.250-  35 2.09  39 2.09  41 2.09  43 2.09  51 2.09  52 2.09
  28  0.000  0.750  0.750-  36 2.09  40 2.09  42 2.09  44 2.09  51 2.09  52 2.09
  29  0.500  0.250  0.250-  33 2.09  37 2.09  45 2.09  47 2.09  53 2.09  54 2.09
  30  0.500  0.250  0.750-  34 2.09  38 2.09  46 2.09  48 2.09  53 2.09  54 2.09
  31  0.500  0.750  0.250-  35 2.09  39 2.09  45 2.09  47 2.09  55 2.09  56 2.09
  32  0.500  0.750  0.750-  36 2.09  40 2.09  46 2.09  48 2.09  55 2.09  56 2.09
  33  0.250  0.250  0.250-   9 2.09  10 2.09  17 2.09  19 2.09  25 2.09  29 2.09
  34  0.250  0.250  0.750-   9 2.09  10 2.09  18 2.09  20 2.09  26 2.09  30 2.09
  35  0.250  0.750  0.250-  11 2.09  12 2.09  17 2.09  19 2.09  27 2.09  31 2.09
  36  0.250  0.750  0.750-  11 2.09  12 2.09  18 2.09  20 2.09  28 2.09  32 2.09
  37  0.750  0.250  0.250-  13 2.09  14 2.09  21 2.09  23 2.09  25 2.09  29 2.09
  38  0.750  0.250  0.750-  13 2.09  14 2.09  22 2.09  24 2.09  26 2.09  30 2.09
  39  0.750  0.750  0.250-  15 2.09  16 2.09  21 2.09  23 2.09  27 2.09  31 2.09
  40  0.750  0.750  0.750-  15 2.09  16 2.09  22 2.09  24 2.09  28 2.09  32 2.09
  41  0.000  0.000  0.250-   1 2.09   2 2.09  17 2.09  21 2.09  25 2.09  27 2.09
  42  0.000  0.000  0.750-   1 2.09   2 2.09  18 2.09  22 2.09  26 2.09  28 2.09
  43  0.000  0.500  0.250-   3 2.09   4 2.09  19 2.09  23 2.09  25 2.09  27 2.09
  44  0.000  0.500  0.750-   3 2.09   4 2.09  20 2.09  24 2.09  26 2.09  28 2.09
  45  0.500  0.000  0.250-   5 2.09   6 2.09  17 2.09  21 2.09  29 2.09  31 2.09
  46  0.500  0.000  0.750-   5 2.09   6 2.09  18 2.09  22 2.09  30 2.09  32 2.09
  47  0.500  0.500  0.250-   7 2.09   8 2.09  19 2.09  23 2.09  29 2.09  31 2.09
  48  0.500  0.500  0.750-   7 2.09   8 2.09  20 2.09  24 2.09  30 2.09  32 2.09
  49  0.000  0.250  0.000-   1 2.09   3 2.09   9 2.09  13 2.09  25 2.09  26 2.09
  50  0.000  0.250  0.500-   2 2.09   4 2.09  10 2.09  14 2.09  25 2.09  26 2.09
  51  0.000  0.750  0.000-   1 2.09   3 2.09  11 2.09  15 2.09  27 2.09  28 2.09
  52  0.000  0.750  0.500-   2 2.09   4 2.09  12 2.09  16 2.09  27 2.09  28 2.09
  53  0.500  0.250  0.000-   5 2.09   7 2.09   9 2.09  13 2.09  29 2.09  30 2.09
  54  0.500  0.250  0.500-   6 2.09   8 2.09  10 2.09  14 2.09  29 2.09  30 2.09
  55  0.500  0.750  0.000-   5 2.09   7 2.09  11 2.09  15 2.09  31 2.09  32 2.09
  56  0.500  0.750  0.500-   6 2.09   8 2.09  12 2.09  16 2.09  31 2.09  32 2.09
  57  0.250  0.000  0.000-   1 2.09   5 2.09   9 2.09  11 2.09  17 2.09  18 2.09
  58  0.250  0.000  0.500-   2 2.09   6 2.09  10 2.09  12 2.09  17 2.09  18 2.09
  59  0.250  0.500  0.000-   3 2.09   7 2.09   9 2.09  11 2.09  19 2.09  20 2.09
  60  0.250  0.500  0.500-   4 2.09   8 2.09  10 2.09  12 2.09  19 2.09  20 2.09
  61  0.750  0.000  0.000-   1 2.09   5 2.09  13 2.09  15 2.09  21 2.09  22 2.09
  62  0.750  0.000  0.500-   2 2.09   6 2.09  14 2.09  16 2.09  21 2.09  22 2.09
  63  0.750  0.500  0.000-   3 2.09   7 2.09  13 2.09  15 2.09  23 2.09  24 2.09
  64  0.750  0.500  0.500-   4 2.09   8 2.09  14 2.09  16 2.09  23 2.09  24 2.09
 
  LATTYP: Found a simple cubic cell.
 ALAT       =     8.3476610000
  
  Lattice vectors:
  
 A1 = (   8.3476610000,   0.0000000000,   0.0000000000)
 A2 = (   0.0000000000,   8.3476610000,   0.0000000000)
 A3 = (   0.0000000000,   0.0000000000,   8.3476610000)


Analysis of symmetry for initial positions (statically):
=====================================================================
 Subroutine PRICEL returns following result:
 
  LATTYP: Found a face centered cubic cell.
 ALAT       =     4.1738305000
  
  Lattice vectors:
  
 A1 = (   2.0869152500,   2.0869152500,   0.0000000000)
 A2 = (   2.0869152500,   0.0000000000,  -2.0869152500)
 A3 = (   0.0000000000,   2.0869152500,  -2.0869152500)
 
  32 primitive cells build up your supercell.
 

 Routine SETGRP: Setting up the symmetry group for a 
 simple cubic supercell.


 Subroutine GETGRP returns: Found 48 space group operations
 (whereof 48 operations were pure point group operations)
 out of a pool of 48 trial point group operations.


The static configuration has the point symmetry O_h .


Analysis of symmetry for dynamics (positions and initial velocities):
=====================================================================
 Subroutine PRICEL returns following result:
 
  LATTYP: Found a face centered cubic cell.
 ALAT       =     4.1738305000
  
  Lattice vectors:
  
 A1 = (   2.0869152500,   2.0869152500,   0.0000000000)
 A2 = (   2.0869152500,   0.0000000000,  -2.0869152500)
 A3 = (   0.0000000000,   2.0869152500,  -2.0869152500)
 
  32 primitive cells build up your supercell.
 

 Routine SETGRP: Setting up the symmetry group for a 
 simple cubic supercell.


 Subroutine GETGRP returns: Found 48 space group operations
 (whereof 48 operations were pure point group operations)
 out of a pool of 48 trial point group operations.


The dynamic configuration has the point symmetry O_h .


Analysis of structural, dynamic, and magnetic symmetry:
=====================================================================
 Subroutine PRICEL returns following result:
 
  LATTYP: Found a face centered cubic cell.
 ALAT       =     4.1738305000
  
  Lattice vectors:
  
 A1 = (   2.0869152500,   2.0869152500,   0.0000000000)
 A2 = (   2.0869152500,   0.0000000000,  -2.0869152500)
 A3 = (   0.0000000000,   2.0869152500,  -2.0869152500)
 
  32 primitive cells build up your supercell.
 

 Routine SETGRP: Setting up the symmetry group for a 
 simple cubic supercell.


 Subroutine GETGRP returns: Found 16 space group operations
 (whereof 16 operations were pure point group operations)
 out of a pool of 48 trial point group operations.


The magnetic configuration has the point symmetry D_4h.


 Subroutine INISYM returns: Found 16 space group operations
 (whereof 16 operations are pure point group operations),
 and found    32 'primitive' translations

 
 
 KPOINTS: k-points                                

Automatic generation of k-mesh.
Space group operators:
 irot       det(A)        alpha          n_x          n_y          n_z        tau_x        tau_y        tau_z
    1     1.000000     0.000000     1.000000     0.000000     0.000000     0.000000     0.000000     0.000000
    2    -1.000000     0.000000     1.000000     0.000000     0.000000     0.000000     0.000000     0.000000
    3     1.000000    90.000000     0.000000     0.000000    -1.000000     0.000000     0.000000     0.000000
    4    -1.000000    90.000000     0.000000     0.000000    -1.000000     0.000000     0.000000     0.000000
    5     1.000000   180.000000     0.000000     0.000000     1.000000     0.000000     0.000000     0.000000
    6    -1.000000   180.000000     0.000000     0.000000     1.000000     0.000000     0.000000     0.000000
    7     1.000000    90.000000     0.000000     0.000000     1.000000     0.000000     0.000000     0.000000
    8    -1.000000    90.000000     0.000000     0.000000     1.000000     0.000000     0.000000     0.000000
    9     1.000000   180.000000     1.000000     0.000000     0.000000     0.000000     0.000000     0.000000
   10    -1.000000   180.000000     1.000000     0.000000     0.000000     0.000000     0.000000     0.000000
   11     1.000000   180.000000     0.707107     0.707107     0.000000     0.000000     0.000000     0.000000
   12    -1.000000   180.000000     0.707107     0.707107     0.000000     0.000000     0.000000     0.000000
   13     1.000000   180.000000     0.000000     1.000000     0.000000     0.000000     0.000000     0.000000
   14    -1.000000   180.000000     0.000000     1.000000     0.000000     0.000000     0.000000     0.000000
   15     1.000000   180.000000     0.707107    -0.707107     0.000000     0.000000     0.000000     0.000000
   16    -1.000000   180.000000     0.707107    -0.707107     0.000000     0.000000     0.000000     0.000000
 
 Subroutine IBZKPT returns following result:
 ===========================================
 
 Found      6 irreducible k-points:
 
 Following reciprocal coordinates:
            Coordinates               Weight
  0.000000  0.000000  0.000000      1.000000
  0.333333  0.000000  0.000000      4.000000
  0.333333  0.333333  0.000000      4.000000
  0.000000  0.000000  0.333333      2.000000
  0.333333  0.000000  0.333333      8.000000
  0.333333  0.333333  0.333333      8.000000
 
 Following cartesian coordinates:
            Coordinates               Weight
  0.000000  0.000000  0.000000      1.000000
  0.333333  0.000000  0.000000      4.000000
  0.333333  0.333333  0.000000      4.000000
  0.000000  0.000000  0.333333      2.000000
  0.333333  0.000000  0.333333      8.000000
  0.333333  0.333333  0.333333      8.000000
 


--------------------------------------------------------------------------------------------------------




 Dimension of arrays:
   k-points           NKPTS =      6   k-points in BZ     NKDIM =      6   number of bands    NBANDS=    460
   number of dos      NEDOS =    301   number of ions     NIONS =     64
   non local maximal  LDIM  =     11   non local SUM 2l+1 LMDIM =     41
   total plane-waves  NPLWV = 125000
   max r-space proj   IRMAX =   2244   max aug-charges    IRDMAX=   4943
   dimension x,y,z NGX =    50 NGY =   50 NGZ =   50
   dimension x,y,z NGXF=   100 NGYF=  100 NGZF=  100
   support grid    NGXF=   100 NGYF=  100 NGZF=  100
   ions per type =              32  32
   NGX,Y,Z   is equivalent  to a cutoff of   9.96,  9.96,  9.96 a.u.
   NGXF,Y,Z  is equivalent  to a cutoff of  19.92, 19.92, 19.92 a.u.

 SYSTEM =  NiO                                     
 POSCAR =  NiO                                     

 Startparameter for this run:
   NWRITE =      2    write-flag & timer
   PREC   = normal    normal or accurate (medium, high low for compatibility)
   ISTART =      0    job   : 0-new  1-cont  2-samecut
   ICHARG =      1    charge: 1-file 2-atom 10-const
   ISPIN  =      2    spin polarized calculation?
   LNONCOLLINEAR =      F non collinear calculations
   LSORBIT =      F    spin-orbit coupling
   INIWAV =      1    electr: 0-lowe 1-rand  2-diag
   LASPH  =      F    aspherical Exc in radial PAW
   METAGGA=      F    non-selfconsistent MetaGGA calc.

 Electronic Relaxation 1
   ENCUT  =  600.0 eV  44.10 Ry    6.64 a.u.  16.67 16.67 16.67*2*pi/ulx,y,z
   ENINI  =  600.0     initial cutoff
   ENAUG  = 1200.0 eV  augmentation charge cutoff
   NELM   =    100;   NELMIN=  2; NELMDL= -5     # of ELM steps 
   EDIFF  = 0.1E-05   stopping-criterion for ELM
   LREAL  =      T    real-space projection
   NLSPLINE    = F    spline interpolate recip. space projectors
   LCOMPAT=      F    compatible to vasp.4.4
   GGA_COMPAT  = T    GGA compatible to vasp.4.4-vasp.4.6
   LMAXPAW     = -100 max onsite density
   LMAXMIX     =    4 max onsite mixed and CHGCAR
   VOSKOWN=      0    Vosko Wilk Nusair interpolation
   ROPT   =   -0.00050  -0.00050
 Ionic relaxation
   EDIFFG = -.1E-03   stopping-criterion for IOM
   NSW    =      0    number of steps for IOM
   NBLOCK =      1;   KBLOCK =      1    inner block; outer block 
   IBRION =     -1    ionic relax: 0-MD 1-quasi-New 2-CG
   NFREE  =      1    steps in history (QN), initial steepest desc. (CG)
   ISIF   =      2    stress and relaxation
   IWAVPR =     10    prediction:  0-non 1-charg 2-wave 3-comb
   ISYM   =      2    0-nonsym 1-usesym 2-fastsym
   LCORR  =      T    Harris-Foulkes like correction to forces

   POTIM  = 0.2000    time-step for ionic-motion
   TEIN   =    0.0    initial temperature
   TEBEG  =    0.0;   TEEND  =   0.0 temperature during run
   SMASS  =  -3.00    Nose mass-parameter (am)
   estimated Nose-frequenzy (Omega)   =  0.10E-29 period in steps =****** mass=  -0.159E-26a.u.
   SCALEE = 1.0000    scale energy and forces
   NPACO  =    256;   APACO  = 16.0  distance and # of slots for P.C.
   PSTRESS=    0.0 pullay stress

  Mass of Ions in am
   POMASS =  58.69 16.00
  Ionic Valenz
   ZVAL   =  18.00  6.00
  Atomic Wigner-Seitz radii
   RWIGS  =  -1.00 -1.00
  virtual crystal weights 
   VCA    =   1.00  1.00
   NELECT =     768.0000    total number of electrons
   NUPDOWN=      -1.0000    fix difference up-down

 DOS related values:
   EMIN   =  10.00;   EMAX   =-10.00  energy-range for DOS
   EFERMI =   0.00
   ISMEAR =     0;   SIGMA  =   0.00  broadening in eV -4-tet -1-fermi 0-gaus

 Electronic relaxation 2 (details)
   IALGO  =     38    algorithm
   LDIAG  =      T    sub-space diagonalisation (order eigenvalues)
   LSUBROT=      F    optimize rotation matrix (better conditioning)
   TURBO    =      0    0=normal 1=particle mesh
   IRESTART =      0    0=no restart 2=restart with 2 vectors
   NREBOOT  =      0    no. of reboots
   NMIN     =      0    reboot dimension
   EREF     =   0.00    reference energy to select bands
   IMIX   =      4    mixing-type and parameters
     AMIX     =   0.40;   BMIX     =  1.00
     AMIX_MAG =   1.60;   BMIX_MAG =  1.00
     AMIN     =   0.10
     WC   =   100.;   INIMIX=   1;  MIXPRE=   1;  MAXMIX= -45

 Intra band minimization:
   WEIMIN = 0.0000     energy-eigenvalue tresh-hold
   EBREAK =  0.54E-09  absolut break condition
   DEPER  =   0.30     relativ break condition  

   TIME   =   0.40     timestep for ELM

  volume/ion in A,a.u.               =       9.09        61.34
  Fermi-wavevector in a.u.,A,eV,Ry     =   1.795962  3.393876 43.885304  3.225479
  Thomas-Fermi vector in A             =   2.857607
 
 Write flags
   LWAVE        =      T    write WAVECAR
   LDOWNSAMPLE  =      F    k-point downsampling of WAVECAR
   LCHARG       =      T    write CHGCAR
   LVTOT        =      F    write LOCPOT, total local potential
   LVHAR        =      F    write LOCPOT, Hartree potential only
   LELF         =      F    write electronic localiz. function (ELF)
   LORBIT       =     11    0 simple, 1 ext, 2 COOP (PROOUT), +10 PAW based schemes


 Dipole corrections
   LMONO  =      F    monopole corrections only (constant potential shift)
   LDIPOL =      F    correct potential (dipole corrections)
   IDIPOL =      0    1-x, 2-y, 3-z, 4-all directions 
   EPSILON=  1.0000000 bulk dielectric constant

 Exchange correlation treatment:
   GGA     =    --    GGA type
   LEXCH   =     8    internal setting for exchange type
   VOSKOWN=      0    Vosko Wilk Nusair interpolation
   LHFCALC =     F    Hartree Fock is set to
   LHFONE  =     F    Hartree Fock one center treatment
   AEXX    =    0.0000 exact exchange contribution

 Linear response parameters
   LEPSILON=     F    determine dielectric tensor
   LRPA    =     F    only Hartree local field effects (RPA)
   LNABLA  =     F    use nabla operator in PAW spheres
   LVEL    =     F    velocity operator in full k-point grid
   LINTERFAST=   F  fast interpolation
   KINTER  =     0    interpolate to denser k-point grid
   CSHIFT  =0.1000    complex shift for real part using Kramers Kronig
   OMEGAMAX=  -1.0    maximum frequency
   DEG_THRESHOLD= 0.2000000E-02 threshold for treating states as degnerate
   RTIME   =   -0.100 relaxation time in fs
  (WPLASMAI=    0.000 imaginary part of plasma frequency in eV, 0.658/RTIME)
   DFIELD  = 0.0000000 0.0000000 0.0000000 field for delta impulse in time
 
 Orbital magnetization related:
   ORBITALMAG=     F  switch on orbital magnetization
   LCHIMAG   =     F  perturbation theory with respect to B field
   DQ        =  0.001000  dq finite difference perturbation B field
   LLRAUG    =     F  two centre corrections for induced B field



--------------------------------------------------------------------------------------------------------


 Static calculation
 charge density and potential will be updated during run
 spin polarized calculation
 Variant of blocked Davidson
 Davidson routine will perform the subspace rotation
 perform sub-space diagonalisation
    after iterative eigenvector-optimisation
 modified Broyden-mixing scheme, WC =      100.0
 initial mixing is a Kerker type mixing with AMIX =  0.4000 and BMIX =      1.0000
 Hartree-type preconditioning will be used
 using additional bands           76
 real space projection scheme for non local part
 use partial core corrections
 calculate Harris-corrections to forces 
   (improved forces if not selfconsistent)
 use gradient corrections 
 use of overlap-Matrix (Vanderbilt PP)
 Gauss-broadening in eV      SIGMA  =   0.00


--------------------------------------------------------------------------------------------------------


  energy-cutoff  :      600.00
  volume of cell :      581.69
      direct lattice vectors                 reciprocal lattice vectors
     8.347661000  0.000000000  0.000000000     0.119794036  0.000000000  0.000000000
     0.000000000  8.347661000  0.000000000     0.000000000  0.119794036  0.000000000
     0.000000000  0.000000000  8.347661000     0.000000000  0.000000000  0.119794036

  length of vectors
     8.347661000  8.347661000  8.347661000     0.119794036  0.119794036  0.119794036


 
 k-points in units of 2pi/SCALE and weight: k-points                                
   0.00000000  0.00000000  0.00000000       0.037
   0.33333333  0.00000000  0.00000000       0.148
   0.33333333  0.33333333  0.00000000       0.148
   0.00000000  0.00000000  0.33333333       0.074
   0.33333333  0.00000000  0.33333333       0.296
   0.33333333  0.33333333  0.33333333       0.296
 
 k-points in reciprocal lattice and weights: k-points                                
   0.00000000  0.00000000  0.00000000       0.037
   0.33333333  0.00000000  0.00000000       0.148
   0.33333333  0.33333333  0.00000000       0.148
   0.00000000  0.00000000  0.33333333       0.074
   0.33333333  0.00000000  0.33333333       0.296
   0.33333333  0.33333333  0.33333333       0.296
 
 position of ions in fractional coordinates (direct lattice) 
   0.00000000  0.00000000  0.00000000
   0.00000000  0.00000000  0.50000000
   0.00000000  0.50000000  0.00000000
   0.00000000  0.50000000  0.50000000
   0.50000000  0.00000000  0.00000000
   0.50000000  0.00000000  0.50000000
   0.50000000  0.50000000  0.00000000
   0.50000000  0.50000000  0.50000000
   0.25000000  0.25000000  0.00000000
   0.25000000  0.25000000  0.50000000
   0.25000000  0.75000000  0.00000000
   0.25000000  0.75000000  0.50000000
   0.75000000  0.25000000  0.00000000
   0.75000000  0.25000000  0.50000000
   0.75000000  0.75000000  0.00000000
   0.75000000  0.75000000  0.50000000
   0.25000000  0.00000000  0.25000000
   0.25000000  0.00000000  0.75000000
   0.25000000  0.50000000  0.25000000
   0.25000000  0.50000000  0.75000000
   0.75000000  0.00000000  0.25000000
   0.75000000  0.00000000  0.75000000
   0.75000000  0.50000000  0.25000000
   0.75000000  0.50000000  0.75000000
   0.00000000  0.25000000  0.25000000
   0.00000000  0.25000000  0.75000000
   0.00000000  0.75000000  0.25000000
   0.00000000  0.75000000  0.75000000
   0.50000000  0.25000000  0.25000000
   0.50000000  0.25000000  0.75000000
   0.50000000  0.75000000  0.25000000
   0.50000000  0.75000000  0.75000000
   0.25000000  0.25000000  0.25000000
   0.25000000  0.25000000  0.75000000
   0.25000000  0.75000000  0.25000000
   0.25000000  0.75000000  0.75000000
   0.75000000  0.25000000  0.25000000
   0.75000000  0.25000000  0.75000000
   0.75000000  0.75000000  0.25000000
   0.75000000  0.75000000  0.75000000
   0.00000000  0.00000000  0.25000000
   0.00000000  0.00000000  0.75000000
   0.00000000  0.50000000  0.25000000
   0.00000000  0.50000000  0.75000000
   0.50000000  0.00000000  0.25000000
   0.50000000  0.00000000  0.75000000
   0.50000000  0.50000000  0.25000000
   0.50000000  0.50000000  0.75000000
   0.00000000  0.25000000  0.00000000
   0.00000000  0.25000000  0.50000000
   0.00000000  0.75000000  0.00000000
   0.00000000  0.75000000  0.50000000
   0.50000000  0.25000000  0.00000000
   0.50000000  0.25000000  0.50000000
   0.50000000  0.75000000  0.00000000
   0.50000000  0.75000000  0.50000000
   0.25000000  0.00000000  0.00000000
   0.25000000  0.00000000  0.50000000
   0.25000000  0.50000000  0.00000000
   0.25000000  0.50000000  0.50000000
   0.75000000  0.00000000  0.00000000
   0.75000000  0.00000000  0.50000000
   0.75000000  0.50000000  0.00000000
   0.75000000  0.50000000  0.50000000
 
 position of ions in cartesian coordinates  (Angst):
   0.00000000  0.00000000  0.00000000
   0.00000000  0.00000000  4.17383050
   0.00000000  4.17383050  0.00000000
   0.00000000  4.17383050  4.17383050
   4.17383050  0.00000000  0.00000000
   4.17383050  0.00000000  4.17383050
   4.17383050  4.17383050  0.00000000
   4.17383050  4.17383050  4.17383050
   2.08691525  2.08691525  0.00000000
   2.08691525  2.08691525  4.17383050
   2.08691525  6.26074575  0.00000000
   2.08691525  6.26074575  4.17383050
   6.26074575  2.08691525  0.00000000
   6.26074575  2.08691525  4.17383050
   6.26074575  6.26074575  0.00000000
   6.26074575  6.26074575  4.17383050
   2.08691525  0.00000000  2.08691525
   2.08691525  0.00000000  6.26074575
   2.08691525  4.17383050  2.08691525
   2.08691525  4.17383050  6.26074575
   6.26074575  0.00000000  2.08691525
   6.26074575  0.00000000  6.26074575
   6.26074575  4.17383050  2.08691525
   6.26074575  4.17383050  6.26074575
   0.00000000  2.08691525  2.08691525
   0.00000000  2.08691525  6.26074575
   0.00000000  6.26074575  2.08691525
   0.00000000  6.26074575  6.26074575
   4.17383050  2.08691525  2.08691525
   4.17383050  2.08691525  6.26074575
   4.17383050  6.26074575  2.08691525
   4.17383050  6.26074575  6.26074575
   2.08691525  2.08691525  2.08691525
   2.08691525  2.08691525  6.26074575
   2.08691525  6.26074575  2.08691525
   2.08691525  6.26074575  6.26074575
   6.26074575  2.08691525  2.08691525
   6.26074575  2.08691525  6.26074575
   6.26074575  6.26074575  2.08691525
   6.26074575  6.26074575  6.26074575
   0.00000000  0.00000000  2.08691525
   0.00000000  0.00000000  6.26074575
   0.00000000  4.17383050  2.08691525
   0.00000000  4.17383050  6.26074575
   4.17383050  0.00000000  2.08691525
   4.17383050  0.00000000  6.26074575
   4.17383050  4.17383050  2.08691525
   4.17383050  4.17383050  6.26074575
   0.00000000  2.08691525  0.00000000
   0.00000000  2.08691525  4.17383050
   0.00000000  6.26074575  0.00000000
   0.00000000  6.26074575  4.17383050
   4.17383050  2.08691525  0.00000000
   4.17383050  2.08691525  4.17383050
   4.17383050  6.26074575  0.00000000
   4.17383050  6.26074575  4.17383050
   2.08691525  0.00000000  0.00000000
   2.08691525  0.00000000  4.17383050
   2.08691525  4.17383050  0.00000000
   2.08691525  4.17383050  4.17383050
   6.26074575  0.00000000  0.00000000
   6.26074575  0.00000000  4.17383050
   6.26074575  4.17383050  0.00000000
   6.26074575  4.17383050  4.17383050
 


--------------------------------------------------------------------------------------------------------


 k-point  1 :   0.0000 0.0000 0.0000  plane waves:   19381
 k-point  2 :   0.3333 0.0000 0.0000  plane waves:   19438
 k-point  3 :   0.3333 0.3333 0.0000  plane waves:   19402
 k-point  4 :   0.0000 0.0000 0.3333  plane waves:   19438
 k-point  5 :   0.3333 0.0000 0.3333  plane waves:   19402
 k-point  6 :   0.3333 0.3333 0.3333  plane waves:   19393

 maximum and minimum number of plane-waves per node :     19438    19381

 maximum number of plane-waves:     19438
 maximum index in each direction: 
   IXMAX=   16   IYMAX=   16   IZMAX=   16
   IXMIN=  -17   IYMIN=  -17   IZMIN=  -17


 serial   3D FFT for wavefunctions
 parallel 3D FFT for charge:
    minimum data exchange during FFTs selected (reduces bandwidth)


 total amount of memory used by VASP MPI-rank0  2099343. kBytes
=======================================================================

   base      :      30000. kBytes
   nonlr-proj:      38118. kBytes
   fftplans  :      34720. kBytes
   grid      :      91360. kBytes
   one-center:      10328. kBytes
   wavefun   :    1894817. kBytes
 
     INWAV:  cpu time    0.0001: real time    0.0001
 Broyden mixing: mesh for mixing (old mesh)
   NGX = 33   NGY = 33   NGZ = 33
  (NGX  =100   NGY  =100   NGZ  =100)
  gives a total of  35937 points

 initial charge density was supplied:
 number of electron     768.0003318 magnetization       0.0000000
 keeping initial charge density in first step


--------------------------------------------------------------------------------------------------------


 Maximum index for non-local projection operator         2176
 Maximum index for augmentation-charges         4625 (set IRDMAX)


--------------------------------------------------------------------------------------------------------


 First call to EWALD:  gamma=   0.212
 Maximum number of real-space cells 3x 3x 3
 Maximum number of reciprocal cells 3x 3x 3

    FEWALD:  cpu time    0.0122: real time    0.0122


----------------------------------------- Iteration    1(   1)  ---------------------------------------


    POTLOK:  cpu time    0.9594: real time    0.9590
    SETDIJ:  cpu time    0.3977: real time    0.3977
     EDDAV:  cpu time   15.3261: real time   15.3388
       DOS:  cpu time    0.0086: real time    0.0086
    --------------------------------------------
      LOOP:  cpu time   16.6941: real time   16.7064

 eigenvalue-minimisations  : 12852
 total energy-change (2. order) : 0.3371195E+05  (-0.2329308E+05)
 number of electron     768.0003318 magnetization       0.0000000
 augmentation part      768.0003318 magnetization       0.0000000

 Free energy of the ion-electron system (eV)
  ---------------------------------------------------
  alpha Z        PSCENC =      5454.96200761
  Ewald energy   TEWEN  =   -104104.01822134
  -Hartree energ DENC   =    -47391.22481477
  -exchange      EXHF   =         0.00000000
  -V(xc)+E(xc)   XCENC  =      5134.46893232
  PAW double counting   =    142077.22770907  -148126.97835835
  entropy T*S    EENTRO =        -0.00004313
  eigenvalues    EBANDS =     18261.88602010
  atomic energy  EATOM  =    162405.62235658
  Solvation  Ediel_sol  =         0.00000000
  ---------------------------------------------------
  free energy    TOTEN  =     33711.94558808 eV

  energy without entropy =    33711.94563121  energy(sigma->0) =    33711.94560964


--------------------------------------------------------------------------------------------------------




----------------------------------------- Iteration    1(   2)  ---------------------------------------


     EDDAV:  cpu time   15.9010: real time   15.9160
       DOS:  cpu time    0.0084: real time    0.0084
    --------------------------------------------
      LOOP:  cpu time   15.9098: real time   15.9249

 eigenvalue-minimisations  : 13560
 total energy-change (2. order) :-0.2021489E+05  (-0.1807134E+05)
 number of electron     768.0003318 magnetization       0.0000000
 augmentation part      768.0003318 magnetization       0.0000000

 Free energy of the ion-electron system (eV)
  ---------------------------------------------------
  alpha Z        PSCENC =      5454.96200761
  Ewald energy   TEWEN  =   -104104.01822134
  -Hartree energ DENC   =    -47391.22481477
  -exchange      EXHF   =         0.00000000
  -V(xc)+E(xc)   XCENC  =      5134.46893232
  PAW double counting   =    142077.22770907  -148126.97835835
  entropy T*S    EENTRO =        -0.00007945
  eigenvalues    EBANDS =     -1953.00035210
  atomic energy  EATOM  =    162405.62235658
  Solvation  Ediel_sol  =         0.00000000
  ---------------------------------------------------
  free energy    TOTEN  =     13497.05917956 eV

  energy without entropy =    13497.05925901  energy(sigma->0) =    13497.05921928


--------------------------------------------------------------------------------------------------------




----------------------------------------- Iteration    1(   3)  ---------------------------------------


     EDDAV:  cpu time   17.7408: real time   17.7625
       DOS:  cpu time    0.0084: real time    0.0084
    --------------------------------------------
      LOOP:  cpu time   17.7497: real time   17.7714

 eigenvalue-minimisations  : 16048
 total energy-change (2. order) :-0.9381791E+04  (-0.8882200E+04)
 number of electron     768.0003318 magnetization       0.0000000
 augmentation part      768.0003318 magnetization       0.0000000

 Free energy of the ion-electron system (eV)
  ---------------------------------------------------
  alpha Z        PSCENC =      5454.96200761
  Ewald energy   TEWEN  =   -104104.01822134
  -Hartree energ DENC   =    -47391.22481477
  -exchange      EXHF   =         0.00000000
  -V(xc)+E(xc)   XCENC  =      5134.46893232
  PAW double counting   =    142077.22770907  -148126.97835835
  entropy T*S    EENTRO =        -0.00003329
  eigenvalues    EBANDS =    -11334.79099445
  atomic energy  EATOM  =    162405.62235658
  Solvation  Ediel_sol  =         0.00000000
  ---------------------------------------------------
  free energy    TOTEN  =      4115.26858338 eV

  energy without entropy =     4115.26861667  energy(sigma->0) =     4115.26860002


--------------------------------------------------------------------------------------------------------




----------------------------------------- Iteration    1(   4)  ---------------------------------------


     EDDAV:  cpu time   21.1843: real time   21.2050
       DOS:  cpu time    0.0096: real time    0.0096
    --------------------------------------------
      LOOP:  cpu time   21.1943: real time   21.2151

 eigenvalue-minimisations  : 20392
 total energy-change (2. order) :-0.3237198E+04  (-0.3034304E+04)
 number of electron     768.0003318 magnetization       0.0000000
 augmentation part      768.0003318 magnetization       0.0000000

 Free energy of the ion-electron system (eV)
  ---------------------------------------------------
  alpha Z        PSCENC =      5454.96200761
  Ewald energy   TEWEN  =   -104104.01822134
  -Hartree energ DENC   =    -47391.22481477
  -exchange      EXHF   =         0.00000000
  -V(xc)+E(xc)   XCENC  =      5134.46893232
  PAW double counting   =    142077.22770907  -148126.97835835
  entropy T*S    EENTRO =        -0.00004179
  eigenvalues    EBANDS =    -14571.98912182
  atomic energy  EATOM  =    162405.62235658
  Solvation  Ediel_sol  =         0.00000000
  ---------------------------------------------------
  free energy    TOTEN  =       878.07044750 eV

  energy without entropy =      878.07048929  energy(sigma->0) =      878.07046840


--------------------------------------------------------------------------------------------------------




----------------------------------------- Iteration    1(   5)  ---------------------------------------


     EDDAV:  cpu time   21.9081: real time   21.9292
       DOS:  cpu time    0.0083: real time    0.0083
    CHARGE:  cpu time    4.3722: real time    4.3718
    MIXING:  cpu time    0.0236: real time    0.0235
    --------------------------------------------
      LOOP:  cpu time   26.3128: real time   26.3333

 eigenvalue-minimisations  : 21448
 total energy-change (2. order) :-0.8704079E+03  (-0.7812481E+03)
 number of electron     768.0004603 magnetization       0.0000000
 augmentation part      321.6496984 magnetization       0.0000000

 Broyden mixing:
  rms(total) = 0.13608E+02    rms(broyden)= 0.13608E+02
  rms(prec ) = 0.15731E+02
  weight for this iteration     100.00

 Free energy of the ion-electron system (eV)
  ---------------------------------------------------
  alpha Z        PSCENC =      5454.96200761
  Ewald energy   TEWEN  =   -104104.01822134
  -Hartree energ DENC   =    -47391.22481477
  -exchange      EXHF   =         0.00000000
  -V(xc)+E(xc)   XCENC  =      5134.46893232
  PAW double counting   =    142077.22770907  -148126.97835835
  entropy T*S    EENTRO =        -0.00007111
  eigenvalues    EBANDS =    -15442.39701905
  atomic energy  EATOM  =    162405.62235658
  Solvation  Ediel_sol  =         0.00000000
  ---------------------------------------------------
  free energy    TOTEN  =         7.66252095 eV

  energy without entropy =        7.66259207  energy(sigma->0) =        7.66255651


--------------------------------------------------------------------------------------------------------




----------------------------------------- Iteration    1(   6)  ---------------------------------------


    POTLOK:  cpu time    0.9649: real time    0.9645
    SETDIJ:  cpu time    0.4094: real time    0.4094
     EDDAV:  cpu time   21.5122: real time   21.5305
       DOS:  cpu time    0.0101: real time    0.0101
    CHARGE:  cpu time    4.3720: real time    4.3715
    MIXING:  cpu time    0.0237: real time    0.0237
    --------------------------------------------
      LOOP:  cpu time   27.2929: real time   27.3103

 eigenvalue-minimisations  : 20964
 total energy-change (2. order) :-0.3572022E+03  (-0.3893734E+03)
 number of electron     768.0004001 magnetization       0.0000000
 augmentation part      290.1565455 magnetization       0.0000000

 Broyden mixing:
  rms(total) = 0.77041E+01    rms(broyden)= 0.77031E+01
  rms(prec ) = 0.10404E+02
  weight for this iteration     100.00

 eigenvalues of (default mixing * dielectric matrix)
  average eigenvalue GAMMA=   0.7444
  0.7444

 Free energy of the ion-electron system (eV)
  ---------------------------------------------------
  alpha Z        PSCENC =      5454.96200761
  Ewald energy   TEWEN  =   -104104.01822134
  -Hartree energ DENC   =    -48912.97509192
  -exchange      EXHF   =         0.00000000
  -V(xc)+E(xc)   XCENC  =      5143.34950601
  PAW double counting   =    152277.07412594  -158717.91948189
  entropy T*S    EENTRO =        -0.00015393
  eigenvalues    EBANDS =    -13895.63475700
  atomic energy  EATOM  =    162405.62235658
  Solvation  Ediel_sol  =         0.00000000
  ---------------------------------------------------
  free energy    TOTEN  =      -349.53970995 eV

  energy without entropy =     -349.53955602  energy(sigma->0) =     -349.53963298


--------------------------------------------------------------------------------------------------------




----------------------------------------- Iteration    1(   7)  ---------------------------------------


    POTLOK:  cpu time    0.9505: real time    0.9502
    SETDIJ:  cpu time    0.4081: real time    0.4081
     EDDAV:  cpu time   19.5178: real time   19.5201
       DOS:  cpu time    0.0081: real time    0.0081
    CHARGE:  cpu time    4.3611: real time    4.3606
    MIXING:  cpu time    0.0282: real time    0.0281
    --------------------------------------------
      LOOP:  cpu time   25.2745: real time   25.2759

 eigenvalue-minimisations  : 18840
 total energy-change (2. order) :-0.4549421E+02  (-0.2048808E+03)
 number of electron     768.0003888 magnetization       0.0000000
 augmentation part      307.5543398 magnetization       0.0000000

 Broyden mixing:
  rms(total) = 0.56995E+01    rms(broyden)= 0.56984E+01
  rms(prec ) = 0.71569E+01
  weight for this iteration     100.00

 eigenvalues of (default mixing * dielectric matrix)
  average eigenvalue GAMMA=   0.6386
  0.6386  0.6386

 Free energy of the ion-electron system (eV)
  ---------------------------------------------------
  alpha Z        PSCENC =      5454.96200761
  Ewald energy   TEWEN  =   -104104.01822134
  -Hartree energ DENC   =    -47470.99629329
  -exchange      EXHF   =         0.00000000
  -V(xc)+E(xc)   XCENC  =      5103.37402635
  PAW double counting   =    150083.46859901  -156160.01065405
  entropy T*S    EENTRO =        -0.00006791
  eigenvalues    EBANDS =    -15707.43567449
  atomic energy  EATOM  =    162405.62235658
  Solvation  Ediel_sol  =         0.00000000
  ---------------------------------------------------
  free energy    TOTEN  =      -395.03392154 eV

  energy without entropy =     -395.03385363  energy(sigma->0) =     -395.03388759


--------------------------------------------------------------------------------------------------------




----------------------------------------- Iteration    1(   8)  ---------------------------------------


    POTLOK:  cpu time    0.9605: real time    0.9604
    SETDIJ:  cpu time    0.4082: real time    0.4081
     EDDAV:  cpu time   21.0216: real time   21.0334
       DOS:  cpu time    0.0085: real time    0.0085
    CHARGE:  cpu time    4.3613: real time    4.3607
    MIXING:  cpu time    0.0322: real time    0.0322
    --------------------------------------------
      LOOP:  cpu time   26.7929: real time   26.8039

 eigenvalue-minimisations  : 20352
 total energy-change (2. order) :-0.9988054E+01  (-0.4017054E+02)
 number of electron     768.0003859 magnetization       0.0000000
 augmentation part      307.7446863 magnetization       0.0000000

 Broyden mixing:
  rms(total) = 0.41891E+01    rms(broyden)= 0.41888E+01
  rms(prec ) = 0.52630E+01
  weight for this iteration     100.00

 eigenvalues of (default mixing * dielectric matrix)
  average eigenvalue GAMMA=   0.8088
  0.6483  0.8891  0.8891

 Free energy of the ion-electron system (eV)
  ---------------------------------------------------
  alpha Z        PSCENC =      5454.96200761
  Ewald energy   TEWEN  =   -104104.01822134
  -Hartree energ DENC   =    -47531.55328367
  -exchange      EXHF   =         0.00000000
  -V(xc)+E(xc)   XCENC  =      5115.81315891
  PAW double counting   =    147753.86756923  -153894.71623780
  entropy T*S    EENTRO =        -0.00006624
  eigenvalues    EBANDS =    -15604.99925858
  atomic energy  EATOM  =    162405.62235658
  Solvation  Ediel_sol  =         0.00000000
  ---------------------------------------------------
  free energy    TOTEN  =      -405.02197531 eV

  energy without entropy =     -405.02190907  energy(sigma->0) =     -405.02194219


--------------------------------------------------------------------------------------------------------




----------------------------------------- Iteration    1(   9)  ---------------------------------------


    POTLOK:  cpu time    0.9592: real time    0.9587
    SETDIJ:  cpu time    0.4108: real time    0.4107
     EDDAV:  cpu time   20.2156: real time   20.2381
       DOS:  cpu time    0.0106: real time    0.0106
    CHARGE:  cpu time    4.3610: real time    4.3606
    MIXING:  cpu time    0.0357: real time    0.0357
    --------------------------------------------
      LOOP:  cpu time   25.9936: real time   26.0151

 eigenvalue-minimisations  : 19592
 total energy-change (2. order) : 0.1081289E+02  (-0.7547811E+01)
 number of electron     768.0003888 magnetization       0.0000000
 augmentation part      307.4645692 magnetization       0.0000000

 Broyden mixing:
  rms(total) = 0.26241E+01    rms(broyden)= 0.26233E+01
  rms(prec ) = 0.30136E+01
  weight for this iteration     100.00

 eigenvalues of (default mixing * dielectric matrix)
  average eigenvalue GAMMA=   0.8385
  1.0525  1.0525  0.6245  0.6245

 Free energy of the ion-electron system (eV)
  ---------------------------------------------------
  alpha Z        PSCENC =      5454.96200761
  Ewald energy   TEWEN  =   -104104.01822134
  -Hartree energ DENC   =    -47667.59031587
  -exchange      EXHF   =         0.00000000
  -V(xc)+E(xc)   XCENC  =      5130.22472081
  PAW double counting   =    145895.90875532  -152027.62937678
  entropy T*S    EENTRO =        -0.00020018
  eigenvalues    EBANDS =    -15481.68881032
  atomic energy  EATOM  =    162405.62235658
  Solvation  Ediel_sol  =         0.00000000
  ---------------------------------------------------
  free energy    TOTEN  =      -394.20908419 eV

  energy without entropy =     -394.20888401  energy(sigma->0) =     -394.20898410


--------------------------------------------------------------------------------------------------------




----------------------------------------- Iteration    1(  10)  ---------------------------------------


    POTLOK:  cpu time    0.9530: real time    0.9526
    SETDIJ:  cpu time    0.4090: real time    0.4089
     EDDAV:  cpu time   21.1033: real time   21.1126
       DOS:  cpu time    0.0084: real time    0.0084
    CHARGE:  cpu time    4.3694: real time    4.3689
    MIXING:  cpu time    0.0388: real time    0.0388
    --------------------------------------------
      LOOP:  cpu time   26.8825: real time   26.8909

 eigenvalue-minimisations  : 20368
 total energy-change (2. order) : 0.2274571E+00  (-0.1584270E+01)
 number of electron     768.0003902 magnetization       0.0000000
 augmentation part      307.8251068 magnetization       0.0000000

 Broyden mixing:
  rms(total) = 0.19503E+01    rms(broyden)= 0.19498E+01
  rms(prec ) = 0.22127E+01
  weight for this iteration     100.00

 eigenvalues of (default mixing * dielectric matrix)
  average eigenvalue GAMMA=   0.9041
  1.2476  1.2476  0.6864  0.6864  0.6529

 Free energy of the ion-electron system (eV)
  ---------------------------------------------------
  alpha Z        PSCENC =      5454.96200761
  Ewald energy   TEWEN  =   -104104.01822134
  -Hartree energ DENC   =    -47682.46550904
  -exchange      EXHF   =         0.00000000
  -V(xc)+E(xc)   XCENC  =      5133.29038673
  PAW double counting   =    144567.69868137  -150676.50627160
  entropy T*S    EENTRO =        -0.00026490
  eigenvalues    EBANDS =    -15492.56479249
  atomic energy  EATOM  =    162405.62235658
  Solvation  Ediel_sol  =         0.00000000
  ---------------------------------------------------
  free energy    TOTEN  =      -393.98162709 eV

  energy without entropy =     -393.98136219  energy(sigma->0) =     -393.98149464


--------------------------------------------------------------------------------------------------------




----------------------------------------- Iteration    1(  11)  ---------------------------------------


    POTLOK:  cpu time    0.9620: real time    0.9617
    SETDIJ:  cpu time    0.4089: real time    0.4089
     EDDAV:  cpu time   22.1827: real time   22.1854
       DOS:  cpu time    0.0098: real time    0.0098
    CHARGE:  cpu time    4.3628: real time    4.3624
    MIXING:  cpu time    0.0435: real time    0.0436
    --------------------------------------------
      LOOP:  cpu time   27.9704: real time   27.9724

 eigenvalue-minimisations  : 22040
 total energy-change (2. order) : 0.8983849E+00  (-0.6847124E+00)
 number of electron     768.0003910 magnetization       0.0000000
 augmentation part      308.1541510 magnetization       0.0000000

 Broyden mixing:
  rms(total) = 0.10085E+01    rms(broyden)= 0.10082E+01
  rms(prec ) = 0.10735E+01
  weight for this iteration     100.00

 eigenvalues of (default mixing * dielectric matrix)
  average eigenvalue GAMMA=   0.8424
  1.2467  1.2467  0.7059  0.7059  0.6770  0.4722

 Free energy of the ion-electron system (eV)
  ---------------------------------------------------
  alpha Z        PSCENC =      5454.96200761
  Ewald energy   TEWEN  =   -104104.01822134
  -Hartree energ DENC   =    -47703.24000937
  -exchange      EXHF   =         0.00000000
  -V(xc)+E(xc)   XCENC  =      5137.01035500
  PAW double counting   =    143268.06321413  -149348.72657080
  entropy T*S    EENTRO =        -0.00012722
  eigenvalues    EBANDS =    -15502.75624674
  atomic energy  EATOM  =    162405.62235658
  Solvation  Ediel_sol  =         0.00000000
  ---------------------------------------------------
  free energy    TOTEN  =      -393.08324216 eV

  energy without entropy =     -393.08311493  energy(sigma->0) =     -393.08317855


--------------------------------------------------------------------------------------------------------




----------------------------------------- Iteration    1(  12)  ---------------------------------------


    POTLOK:  cpu time    0.9545: real time    0.9541
    SETDIJ:  cpu time    0.4087: real time    0.4087
     EDDAV:  cpu time   20.5523: real time   20.5739
       DOS:  cpu time    0.0025: real time    0.0025
    CHARGE:  cpu time    4.3715: real time    4.3713
    MIXING:  cpu time    0.0431: real time    0.0431
    --------------------------------------------
      LOOP:  cpu time   26.3333: real time   26.3543

 eigenvalue-minimisations  : 19624
 total energy-change (2. order) : 0.3297688E-01  (-0.9013781E-01)
 number of electron     768.0003923 magnetization       0.0000000
 augmentation part      308.4952543 magnetization       0.0000000

 Broyden mixing:
  rms(total) = 0.82854E+00    rms(broyden)= 0.82850E+00
  rms(prec ) = 0.86377E+00
  weight for this iteration     100.00

 eigenvalues of (default mixing * dielectric matrix)
  average eigenvalue GAMMA=   0.9453
  1.2415  1.2415  1.1039  0.9734  0.9734  0.5417  0.5417

 Free energy of the ion-electron system (eV)
  ---------------------------------------------------
  alpha Z        PSCENC =      5454.96200761
  Ewald energy   TEWEN  =   -104104.01822134
  -Hartree energ DENC   =    -47700.71112462
  -exchange      EXHF   =         0.00000000
  -V(xc)+E(xc)   XCENC  =      5137.37751843
  PAW double counting   =    142992.62075626  -149067.17126731
  entropy T*S    EENTRO =        -0.00000000
  eigenvalues    EBANDS =    -15511.73229088
  atomic energy  EATOM  =    162405.62235658
  Solvation  Ediel_sol  =         0.00000000
  ---------------------------------------------------
  free energy    TOTEN  =      -393.05026528 eV

  energy without entropy =     -393.05026528  energy(sigma->0) =     -393.05026528


--------------------------------------------------------------------------------------------------------




----------------------------------------- Iteration    1(  13)  ---------------------------------------


    POTLOK:  cpu time    0.9506: real time    0.9503
    SETDIJ:  cpu time    0.4081: real time    0.4080
     EDDAV:  cpu time   21.5737: real time   21.5912
       DOS:  cpu time    0.0021: real time    0.0021
    CHARGE:  cpu time    4.3629: real time    4.3627
    MIXING:  cpu time    0.0534: real time    0.0534
    --------------------------------------------
      LOOP:  cpu time   27.3515: real time   27.3683

 eigenvalue-minimisations  : 21296
 total energy-change (2. order) : 0.5227481E-01  (-0.7967601E-01)
 number of electron     768.0003928 magnetization       0.0000000
 augmentation part      308.8074243 magnetization       0.0000000

 Broyden mixing:
  rms(total) = 0.36420E+00    rms(broyden)= 0.36414E+00
  rms(prec ) = 0.37712E+00
  weight for this iteration     100.00

 eigenvalues of (default mixing * dielectric matrix)
  average eigenvalue GAMMA=   0.9856
  1.2884  1.2884  1.3175  1.0977  0.7681  0.7681  0.8095  0.5467

 Free energy of the ion-electron system (eV)
  ---------------------------------------------------
  alpha Z        PSCENC =      5454.96200761
  Ewald energy   TEWEN  =   -104104.01822134
  -Hartree energ DENC   =    -47708.80483185
  -exchange      EXHF   =         0.00000000
  -V(xc)+E(xc)   XCENC  =      5138.61615340
  PAW double counting   =    142111.27806549  -148166.48996490
  entropy T*S    EENTRO =        -0.00000000
  eigenvalues    EBANDS =    -15524.16355546
  atomic energy  EATOM  =    162405.62235658
  Solvation  Ediel_sol  =         0.00000000
  ---------------------------------------------------
  free energy    TOTEN  =      -392.99799047 eV

  energy without entropy =     -392.99799047  energy(sigma->0) =     -392.99799047


--------------------------------------------------------------------------------------------------------




----------------------------------------- Iteration    1(  14)  ---------------------------------------


    POTLOK:  cpu time    0.9604: real time    0.9601
    SETDIJ:  cpu time    0.4097: real time    0.4097
     EDDAV:  cpu time   19.5949: real time   19.6067
       DOS:  cpu time    0.0019: real time    0.0019
    CHARGE:  cpu time    4.3484: real time    4.3479
    MIXING:  cpu time    0.0521: real time    0.0522
    --------------------------------------------
      LOOP:  cpu time   25.3680: real time   25.3792

 eigenvalue-minimisations  : 18456
 total energy-change (2. order) :-0.8505063E-03  (-0.1443184E-01)
 number of electron     768.0003932 magnetization       0.0000000
 augmentation part      308.9506319 magnetization       0.0000000

 Broyden mixing:
  rms(total) = 0.20261E+00    rms(broyden)= 0.20261E+00
  rms(prec ) = 0.20768E+00
  weight for this iteration     100.00

 eigenvalues of (default mixing * dielectric matrix)
  average eigenvalue GAMMA=   1.0460
  2.2641  1.2893  1.2893  0.8333  0.8333  0.8918  0.8918  0.5604  0.5604

 Free energy of the ion-electron system (eV)
  ---------------------------------------------------
  alpha Z        PSCENC =      5454.96200761
  Ewald energy   TEWEN  =   -104104.01822134
  -Hartree energ DENC   =    -47697.56254956
  -exchange      EXHF   =         0.00000000
  -V(xc)+E(xc)   XCENC  =      5137.93715007
  PAW double counting   =    141846.60842810  -147895.76343580
  entropy T*S    EENTRO =        -0.00000000
  eigenvalues    EBANDS =    -15540.78457663
  atomic energy  EATOM  =    162405.62235658
  Solvation  Ediel_sol  =         0.00000000
  ---------------------------------------------------
  free energy    TOTEN  =      -392.99884098 eV

  energy without entropy =     -392.99884098  energy(sigma->0) =     -392.99884098


--------------------------------------------------------------------------------------------------------




----------------------------------------- Iteration    1(  15)  ---------------------------------------


    POTLOK:  cpu time    0.9499: real time    0.9495
    SETDIJ:  cpu time    0.4084: real time    0.4083
     EDDAV:  cpu time   21.0124: real time   21.0449
       DOS:  cpu time    0.0021: real time    0.0021
    CHARGE:  cpu time    4.3635: real time    4.3631
    MIXING:  cpu time    0.0642: real time    0.0641
    --------------------------------------------
      LOOP:  cpu time   26.8011: real time   26.8326

 eigenvalue-minimisations  : 20504
 total energy-change (2. order) :-0.2861188E-02  (-0.2274064E-02)
 number of electron     768.0003933 magnetization       0.0000000
 augmentation part      308.9949418 magnetization       0.0000000

 Broyden mixing:
  rms(total) = 0.11060E+00    rms(broyden)= 0.11060E+00
  rms(prec ) = 0.11723E+00
  weight for this iteration     100.00

 eigenvalues of (default mixing * dielectric matrix)
  average eigenvalue GAMMA=   1.0526
  2.4189  1.2867  1.2867  0.8744  0.8744  0.9900  0.9900  0.6257  0.6257  0.5536

 Free energy of the ion-electron system (eV)
  ---------------------------------------------------
  alpha Z        PSCENC =      5454.96200761
  Ewald energy   TEWEN  =   -104104.01822134
  -Hartree energ DENC   =    -47696.99093577
  -exchange      EXHF   =         0.00000000
  -V(xc)+E(xc)   XCENC  =      5137.92764201
  PAW double counting   =    141683.33148774  -147731.69192162
  entropy T*S    EENTRO =        -0.00000000
  eigenvalues    EBANDS =    -15542.14411737
  atomic energy  EATOM  =    162405.62235658
  Solvation  Ediel_sol  =         0.00000000
  ---------------------------------------------------
  free energy    TOTEN  =      -393.00170217 eV

  energy without entropy =     -393.00170217  energy(sigma->0) =     -393.00170217


--------------------------------------------------------------------------------------------------------




----------------------------------------- Iteration    1(  16)  ---------------------------------------


    POTLOK:  cpu time    0.9616: real time    0.9614
    SETDIJ:  cpu time    0.4086: real time    0.4086
     EDDAV:  cpu time   20.4744: real time   20.4955
       DOS:  cpu time    0.0023: real time    0.0023
    CHARGE:  cpu time    4.3436: real time    4.3431
    MIXING:  cpu time    0.0612: real time    0.0612
    --------------------------------------------
      LOOP:  cpu time   26.2524: real time   26.2728

 eigenvalue-minimisations  : 19624
 total energy-change (2. order) : 0.1844676E-02  (-0.5415858E-03)
 number of electron     768.0003932 magnetization       0.0000000
 augmentation part      308.9562134 magnetization       0.0000000

 Broyden mixing:
  rms(total) = 0.69311E-01    rms(broyden)= 0.69310E-01
  rms(prec ) = 0.72637E-01
  weight for this iteration     100.00

 eigenvalues of (default mixing * dielectric matrix)
  average eigenvalue GAMMA=   1.0553
  2.5463  1.2766  1.2766  1.2383  0.9243  0.9243  0.8548  0.7203  0.7203  0.5630
  0.5630

 Free energy of the ion-electron system (eV)
  ---------------------------------------------------
  alpha Z        PSCENC =      5454.96200761
  Ewald energy   TEWEN  =   -104104.01822134
  -Hartree energ DENC   =    -47696.52173086
  -exchange      EXHF   =         0.00000000
  -V(xc)+E(xc)   XCENC  =      5137.83614377
  PAW double counting   =    141639.03953906  -147689.72649740
  entropy T*S    EENTRO =        -0.00000000
  eigenvalues    EBANDS =    -15540.19345491
  atomic energy  EATOM  =    162405.62235658
  Solvation  Ediel_sol  =         0.00000000
  ---------------------------------------------------
  free energy    TOTEN  =      -392.99985749 eV

  energy without entropy =     -392.99985749  energy(sigma->0) =     -392.99985749


--------------------------------------------------------------------------------------------------------




----------------------------------------- Iteration    1(  17)  ---------------------------------------


    POTLOK:  cpu time    0.9508: real time    0.9507
    SETDIJ:  cpu time    0.4082: real time    0.4081
     EDDAV:  cpu time   22.3324: real time   22.3806
       DOS:  cpu time    0.0021: real time    0.0021
    CHARGE:  cpu time    4.3646: real time    4.3641
    MIXING:  cpu time    0.0764: real time    0.0763
    --------------------------------------------
      LOOP:  cpu time   28.1351: real time   28.1824

 eigenvalue-minimisations  : 21984
 total energy-change (2. order) : 0.4929961E-03  (-0.1504497E-03)
 number of electron     768.0003932 magnetization       0.0000000
 augmentation part      308.9570702 magnetization       0.0000000

 Broyden mixing:
  rms(total) = 0.44858E-01    rms(broyden)= 0.44857E-01
  rms(prec ) = 0.46615E-01
  weight for this iteration     100.00

 eigenvalues of (default mixing * dielectric matrix)
  average eigenvalue GAMMA=   1.0960
  2.6315  1.6481  1.2854  1.2854  1.0274  1.0274  0.8338  0.8338  0.8216  0.5985
  0.5985  0.5600

 Free energy of the ion-electron system (eV)
  ---------------------------------------------------
  alpha Z        PSCENC =      5454.96200761
  Ewald energy   TEWEN  =   -104104.01822134
  -Hartree energ DENC   =    -47692.74361724
  -exchange      EXHF   =         0.00000000
  -V(xc)+E(xc)   XCENC  =      5137.66130360
  PAW double counting   =    141620.76396562  -147673.26582711
  entropy T*S    EENTRO =        -0.00000000
  eigenvalues    EBANDS =    -15541.98133221
  atomic energy  EATOM  =    162405.62235658
  Solvation  Ediel_sol  =         0.00000000
  ---------------------------------------------------
  free energy    TOTEN  =      -392.99936449 eV

  energy without entropy =     -392.99936449  energy(sigma->0) =     -392.99936449


--------------------------------------------------------------------------------------------------------




----------------------------------------- Iteration    1(  18)  ---------------------------------------


    POTLOK:  cpu time    0.9593: real time    0.9591
    SETDIJ:  cpu time    0.4090: real time    0.4090
     EDDAV:  cpu time   21.4390: real time   21.4465
       DOS:  cpu time    0.0017: real time    0.0017
    CHARGE:  cpu time    4.3468: real time    4.3461
    MIXING:  cpu time    0.0738: real time    0.0738
    --------------------------------------------
      LOOP:  cpu time   27.2302: real time   27.2368

 eigenvalue-minimisations  : 20896
 total energy-change (2. order) : 0.1139660E-03  (-0.5862235E-04)
 number of electron     768.0003932 magnetization       0.0000000
 augmentation part      308.9752728 magnetization       0.0000000

 Broyden mixing:
  rms(total) = 0.25143E-01    rms(broyden)= 0.25142E-01
  rms(prec ) = 0.26156E-01
  weight for this iteration     100.00

 eigenvalues of (default mixing * dielectric matrix)
  average eigenvalue GAMMA=   1.0931
  2.8999  1.2842  1.2842  1.3836  1.3836  0.8467  0.8467  0.9369  0.9369  0.6363
  0.6363  0.5675  0.5675

 Free energy of the ion-electron system (eV)
  ---------------------------------------------------
  alpha Z        PSCENC =      5454.96200761
  Ewald energy   TEWEN  =   -104104.01822134
  -Hartree energ DENC   =    -47689.70203046
  -exchange      EXHF   =         0.00000000
  -V(xc)+E(xc)   XCENC  =      5137.52803266
  PAW double counting   =    141594.95214116  -147648.08876940
  entropy T*S    EENTRO =        -0.00000000
  eigenvalues    EBANDS =    -15544.25476733
  atomic energy  EATOM  =    162405.62235658
  Solvation  Ediel_sol  =         0.00000000
  ---------------------------------------------------
  free energy    TOTEN  =      -392.99925053 eV

  energy without entropy =     -392.99925053  energy(sigma->0) =     -392.99925053


--------------------------------------------------------------------------------------------------------




----------------------------------------- Iteration    1(  19)  ---------------------------------------


    POTLOK:  cpu time    0.9501: real time    0.9497
    SETDIJ:  cpu time    0.4072: real time    0.4071
     EDDAV:  cpu time   21.1060: real time   21.1415
       DOS:  cpu time    0.0023: real time    0.0023
    CHARGE:  cpu time    4.3709: real time    4.3705
    MIXING:  cpu time    0.0823: real time    0.0822
    --------------------------------------------
      LOOP:  cpu time   26.9195: real time   26.9540

 eigenvalue-minimisations  : 20200
 total energy-change (2. order) : 0.9755924E-05  (-0.1149567E-04)
 number of electron     768.0003932 magnetization       0.0000000
 augmentation part      308.9787306 magnetization       0.0000000

 Broyden mixing:
  rms(total) = 0.15135E-01    rms(broyden)= 0.15134E-01
  rms(prec ) = 0.16097E-01
  weight for this iteration     100.00

 eigenvalues of (default mixing * dielectric matrix)
  average eigenvalue GAMMA=   1.1793
  3.1494  1.9309  1.9309  1.2799  1.2799  0.8816  0.8816  0.9090  0.9090  0.7899
  0.7899  0.5682  0.6052  0.6052

 Free energy of the ion-electron system (eV)
  ---------------------------------------------------
  alpha Z        PSCENC =      5454.96200761
  Ewald energy   TEWEN  =   -104104.01822134
  -Hartree energ DENC   =    -47688.78410259
  -exchange      EXHF   =         0.00000000
  -V(xc)+E(xc)   XCENC  =      5137.48740594
  PAW double counting   =    141579.50516835  -147632.94851655
  entropy T*S    EENTRO =        -0.00000000
  eigenvalues    EBANDS =    -15544.82533877
  atomic energy  EATOM  =    162405.62235658
  Solvation  Ediel_sol  =         0.00000000
  ---------------------------------------------------
  free energy    TOTEN  =      -392.99924077 eV

  energy without entropy =     -392.99924077  energy(sigma->0) =     -392.99924077


--------------------------------------------------------------------------------------------------------




----------------------------------------- Iteration    1(  20)  ---------------------------------------


    POTLOK:  cpu time    0.9575: real time    0.9573
    SETDIJ:  cpu time    0.4086: real time    0.4085
     EDDAV:  cpu time   18.7295: real time   18.7618
       DOS:  cpu time    0.0021: real time    0.0021
    CHARGE:  cpu time    4.3491: real time    4.3487
    MIXING:  cpu time    0.0960: real time    0.0961
    --------------------------------------------
      LOOP:  cpu time   24.5434: real time   24.5751

 eigenvalue-minimisations  : 17368
 total energy-change (2. order) :-0.6086353E-04  (-0.4437855E-05)
 number of electron     768.0003933 magnetization       0.0000000
 augmentation part      308.9815663 magnetization       0.0000000

 Broyden mixing:
  rms(total) = 0.95425E-02    rms(broyden)= 0.95419E-02
  rms(prec ) = 0.12147E-01
  weight for this iteration     100.00

 eigenvalues of (default mixing * dielectric matrix)
  average eigenvalue GAMMA=   1.1877
  3.0638  2.2238  2.2238  1.2888  1.2888  1.0020  1.0020  0.8608  0.8608  0.8172
  0.8172  0.6142  0.6142  0.5691  0.5691

 Free energy of the ion-electron system (eV)
  ---------------------------------------------------
  alpha Z        PSCENC =      5454.96200761
  Ewald energy   TEWEN  =   -104104.01822134
  -Hartree energ DENC   =    -47688.05409712
  -exchange      EXHF   =         0.00000000
  -V(xc)+E(xc)   XCENC  =      5137.46934931
  PAW double counting   =    141556.12292466  -147610.00357725
  entropy T*S    EENTRO =        -0.00000000
  eigenvalues    EBANDS =    -15545.10004408
  atomic energy  EATOM  =    162405.62235658
  Solvation  Ediel_sol  =         0.00000000
  ---------------------------------------------------
  free energy    TOTEN  =      -392.99930164 eV

  energy without entropy =     -392.99930164  energy(sigma->0) =     -392.99930164


--------------------------------------------------------------------------------------------------------




----------------------------------------- Iteration    1(  21)  ---------------------------------------


    POTLOK:  cpu time    0.9540: real time    0.9535
    SETDIJ:  cpu time    0.4090: real time    0.4089
     EDDAV:  cpu time   16.6629: real time   16.6703
       DOS:  cpu time    0.0019: real time    0.0019
    CHARGE:  cpu time    4.3890: real time    4.3886
    MIXING:  cpu time    0.0904: real time    0.0903
    --------------------------------------------
      LOOP:  cpu time   22.5077: real time   22.5140

 eigenvalue-minimisations  : 14432
 total energy-change (2. order) : 0.5817975E-04  (-0.2099402E-05)
 number of electron     768.0003932 magnetization       0.0000000
 augmentation part      308.9793110 magnetization       0.0000000

 Broyden mixing:
  rms(total) = 0.67196E-02    rms(broyden)= 0.67195E-02
  rms(prec ) = 0.87209E-02
  weight for this iteration     100.00

 eigenvalues of (default mixing * dielectric matrix)
  average eigenvalue GAMMA=   1.1987
  3.7745  2.3439  1.8907  1.2851  1.2851  1.0542  1.0542  0.8614  0.8614  0.7884
  0.7884  0.7414  0.6394  0.6394  0.5803  0.5908

 Free energy of the ion-electron system (eV)
  ---------------------------------------------------
  alpha Z        PSCENC =      5454.96200761
  Ewald energy   TEWEN  =   -104104.01822134
  -Hartree energ DENC   =    -47687.66267677
  -exchange      EXHF   =         0.00000000
  -V(xc)+E(xc)   XCENC  =      5137.43942885
  PAW double counting   =    141559.23948999  -147613.38046214
  entropy T*S    EENTRO =        -0.00000000
  eigenvalues    EBANDS =    -15545.20116623
  atomic energy  EATOM  =    162405.62235658
  Solvation  Ediel_sol  =         0.00000000
  ---------------------------------------------------
  free energy    TOTEN  =      -392.99924346 eV

  energy without entropy =     -392.99924346  energy(sigma->0) =     -392.99924346


--------------------------------------------------------------------------------------------------------




----------------------------------------- Iteration    1(  22)  ---------------------------------------


    POTLOK:  cpu time    0.9502: real time    0.9499
    SETDIJ:  cpu time    0.4082: real time    0.4081
     EDDAV:  cpu time   18.7597: real time   18.7795
       DOS:  cpu time    0.0019: real time    0.0019
    CHARGE:  cpu time    4.3588: real time    4.3583
    MIXING:  cpu time    0.1080: real time    0.1079
    --------------------------------------------
      LOOP:  cpu time   24.5875: real time   24.6063

 eigenvalue-minimisations  : 17400
 total energy-change (2. order) : 0.5100927E-04  (-0.1585598E-04)
 number of electron     768.0003932 magnetization       0.0000000
 augmentation part      308.9752898 magnetization       0.0000000

 Broyden mixing:
  rms(total) = 0.19019E-02    rms(broyden)= 0.18992E-02
  rms(prec ) = 0.19250E-02
  weight for this iteration     100.00

 eigenvalues of (default mixing * dielectric matrix)
  average eigenvalue GAMMA=   1.1394
  3.4892  2.2804  1.8949  1.2850  1.2850  0.8538  0.8538  0.9031  0.9031  0.8757
  0.8757  0.7694  0.6788  0.6788  0.5708  0.5866  0.5866

 Free energy of the ion-electron system (eV)
  ---------------------------------------------------
  alpha Z        PSCENC =      5454.96200761
  Ewald energy   TEWEN  =   -104104.01822134
  -Hartree energ DENC   =    -47686.88256856
  -exchange      EXHF   =         0.00000000
  -V(xc)+E(xc)   XCENC  =      5137.38365297
  PAW double counting   =    141559.48921659  -147614.02332759
  entropy T*S    EENTRO =        -0.00000000
  eigenvalues    EBANDS =    -15545.53230870
  atomic energy  EATOM  =    162405.62235658
  Solvation  Ediel_sol  =         0.00000000
  ---------------------------------------------------
  free energy    TOTEN  =      -392.99919245 eV

  energy without entropy =     -392.99919245  energy(sigma->0) =     -392.99919245


--------------------------------------------------------------------------------------------------------




----------------------------------------- Iteration    1(  23)  ---------------------------------------


    POTLOK:  cpu time    0.9605: real time    0.9603
[...]
   0.117E-11 0.630E-12 0.161E-10   -.197E-12 0.127E-12 -.114E-12   0.860E-22 -.596E-22 -.389E-21   0.564E-12 -.250E-12 -.182E-11
   0.118E-11 0.498E-12 0.109E-11   -.169E-12 0.113E-12 -.568E-13   0.794E-22 0.397E-22 0.309E-21   0.519E-12 -.228E-12 0.499E-12
   0.125E-11 -.317E-12 0.187E-11   -.226E-12 0.160E-12 -.114E-12   0.993E-23 0.159E-21 -.232E-22   0.621E-12 0.618E-13 -.173E-11
   0.123E-11 -.890E-11 0.927E-11   0.162E-14 0.188E-12 -.568E-13   0.662E-22 -.612E-22 0.215E-21   0.563E-12 0.385E-13 0.314E-12
   0.178E-11 0.529E-12 -.427E-11   -.882E-14 0.113E-12 -.114E-12   0.172E-21 -.265E-22 -.529E-22   0.510E-12 -.210E-13 -.152E-11
   0.172E-11 0.455E-12 -.543E-10   -.179E-12 0.113E-12 -.114E-12   0.393E-22 0.993E-22 0.304E-21   0.595E-12 0.112E-12 0.684E-12
   0.167E-11 -.955E-11 -.833E-11   -.222E-12 0.160E-12 -.114E-12   0.248E-22 -.744E-22 -.194E-21   0.547E-12 0.269E-12 -.137E-11
   0.168E-11 0.127E-10 -.782E-11   -.279E-12 0.174E-12 -.114E-12   -.124E-22 0.331E-22 0.132E-21   0.621E-12 0.177E-12 0.771E-12
   0.626E-12 0.101E-11 0.934E-12   -.171E-12 0.171E-12 -.114E-12   0.298E-22 0.662E-23 -.529E-22   0.798E-12 0.186E-12 -.162E-11
   0.611E-12 0.112E-11 0.121E-11   -.171E-12 0.227E-12 -.114E-12   -.182E-21 -.199E-22 0.309E-21   0.686E-12 0.105E-12 0.434E-12
   0.537E-12 0.174E-11 0.934E-12   -.412E-12 0.199E-12 -.568E-13   -.331E-23 0.529E-22 -.232E-21   0.817E-12 0.123E-12 -.168E-11
   0.579E-12 0.163E-11 0.126E-11   -.526E-12 0.114E-12 -.568E-13   0.165E-21 -.266E-21 0.185E-21   0.853E-12 0.171E-12 0.554E-12
   0.160E-12 0.436E-10 0.196E-10   -.341E-12 0.156E-12 -.114E-12   -.119E-21 0.529E-22 -.291E-21   -.974E-12 0.172E-12 -.158E-11
   0.145E-12 0.153E-11 0.282E-11   -.171E-12 0.171E-12 -.568E-13   0.185E-21 -.662E-22 0.291E-21   -.816E-12 0.163E-12 0.504E-12
   0.186E-12 -.728E-11 0.121E-10   -.199E-12 0.128E-12 -.114E-12   -.397E-22 0.162E-21 -.139E-21   -.102E-11 0.137E-12 -.167E-11
   0.138E-12 0.174E-11 -.226E-10   -.171E-12 0.114E-12 -.568E-13   -.265E-22 -.179E-21 0.926E-22   -.106E-11 0.144E-12 0.578E-12
   0.157E-12 -.184E-11 0.103E-11   0.129E-12 0.320E-13 -.142E-13   -.199E-22 -.170E-22 0.331E-23   -.169E-12 0.350E-13 -.501E-12
   0.575E-13 0.397E-11 0.235E-11   0.186E-12 0.604E-13 0.000E+00   0.372E-23 0.165E-23 -.165E-22   -.626E-13 -.172E-13 0.490E-12
   0.828E-13 0.425E-11 0.261E-11   0.106E-12 0.826E-13 -.142E-13   0.254E-22 0.273E-22 -.281E-22   -.792E-13 -.767E-13 -.472E-12
   0.160E-12 -.868E-12 0.216E-11   0.106E-12 0.542E-13 0.000E+00   0.993E-23 0.331E-23 -.116E-22   -.198E-12 -.249E-13 0.455E-12
   0.367E-12 0.486E-11 -.130E-11   0.119E-12 0.497E-13 -.142E-13   0.331E-22 0.298E-22 -.170E-22   0.246E-12 -.588E-13 -.473E-12
   0.465E-12 0.160E-10 -.830E-11   0.119E-12 0.639E-13 0.000E+00   -.211E-22 0.993E-23 0.168E-22   0.135E-12 -.455E-13 0.405E-12
   0.437E-12 -.811E-11 0.118E-10   0.157E-12 0.853E-13 -.142E-13   0.339E-22 0.827E-23 0.827E-23   0.154E-12 -.238E-13 -.588E-12
   0.359E-12 0.162E-11 -.464E-11   0.129E-12 0.568E-13 0.000E+00   -.281E-22 -.910E-23 -.165E-23   0.277E-12 -.338E-13 0.540E-12
   0.204E-12 0.309E-12 0.203E-12   0.613E-13 0.832E-13 -.142E-13   -.165E-22 0.496E-23 -.207E-22   0.258E-12 -.254E-13 -.582E-12
   0.183E-12 0.348E-12 0.308E-12   0.613E-13 0.547E-13 0.000E+00   0.112E-22 -.236E-22 -.765E-23   0.274E-12 -.108E-12 0.508E-12
   0.174E-12 0.157E-12 0.132E-12   0.711E-13 0.622E-13 -.142E-13   -.207E-23 0.182E-22 -.165E-23   0.325E-12 -.311E-13 -.431E-12
   0.206E-12 -.140E-12 -.163E-12   0.711E-13 0.622E-13 0.000E+00   0.447E-22 -.116E-22 -.174E-22   0.285E-12 0.461E-13 0.374E-12
   0.395E-13 0.369E-12 0.190E-10   0.728E-13 0.858E-13 -.142E-13   0.163E-22 0.786E-23 0.306E-22   -.516E-12 -.101E-12 -.507E-12
   0.615E-13 0.232E-12 0.317E-11   0.586E-13 0.716E-13 0.000E+00   0.209E-22 0.662E-23 0.182E-22   -.537E-12 0.404E-13 0.451E-12
   0.649E-13 0.486E-11 0.836E-11   0.497E-13 0.658E-13 -.142E-13   -.265E-22 0.579E-23 0.281E-22   -.577E-12 0.105E-12 -.568E-12
   0.348E-13 0.581E-11 0.489E-11   0.107E-12 0.658E-13 0.000E+00   -.157E-22 0.331E-23 -.132E-22   -.540E-12 -.322E-13 0.505E-12
   0.217E-12 0.993E-13 0.402E-12   0.453E-13 0.240E-13 -.947E-15   0.496E-23 0.331E-22 0.124E-22   0.261E-12 -.935E-13 0.936E-12
   0.243E-12 0.173E-13 0.287E-12   0.355E-13 0.284E-13 0.513E-14   0.397E-22 -.182E-22 0.827E-23   0.195E-12 0.359E-13 -.413E-12
   0.196E-12 0.282E-12 0.450E-12   0.130E-12 0.595E-13 -.104E-14   -.199E-22 -.165E-23 0.227E-22   0.246E-12 0.946E-14 0.817E-12
   0.171E-12 -.207E-12 -.527E-14   0.639E-13 0.426E-13 0.503E-14   0.199E-22 0.910E-23 0.662E-23   0.338E-12 -.124E-12 -.356E-12
   0.167E-13 0.181E-10 -.118E-10   0.986E-13 0.471E-13 -.107E-14   0.143E-22 -.414E-24 0.744E-23   -.499E-12 -.189E-15 0.833E-12
   -.524E-14 0.745E-11 0.825E-11   0.853E-13 0.497E-13 0.501E-14   -.420E-22 -.182E-22 0.703E-23   -.430E-12 -.527E-13 -.312E-12
   0.336E-13 0.268E-11 -.120E-10   0.453E-13 0.728E-13 -.116E-14   -.331E-23 0.476E-23 -.103E-22   -.464E-12 -.833E-13 0.989E-12
   0.621E-13 0.551E-11 0.439E-11   0.497E-13 0.426E-13 0.491E-14   0.232E-22 -.116E-22 0.194E-22   -.556E-12 -.266E-13 -.435E-12
   0.101E-12 0.374E-12 -.268E-12   -.450E-14 0.546E-13 -.488E-14   0.165E-22 -.269E-22 -.108E-22   -.154E-12 -.621E-13 0.885E-12
   0.849E-13 0.351E-12 -.940E-11   -.880E-14 0.573E-13 0.119E-14   -.931E-23 0.662E-23 0.238E-23   -.912E-13 -.952E-13 -.339E-12
   0.775E-13 0.835E-12 -.105E-10   -.177E-13 0.324E-13 -.498E-14   -.116E-22 0.331E-23 0.139E-22   -.638E-13 0.598E-13 0.931E-12
   0.156E-12 0.958E-12 0.650E-12   -.868E-14 0.706E-13 0.109E-14   0.234E-22 0.141E-22 -.124E-22   -.192E-12 0.915E-13 -.381E-12
   0.427E-12 0.349E-12 0.213E-11   0.452E-13 0.740E-13 -.500E-14   -.128E-22 -.215E-22 -.662E-23   0.221E-12 -.836E-13 0.866E-12
   0.444E-12 0.272E-12 -.156E-11   -.124E-13 0.500E-13 0.107E-14   0.203E-22 0.827E-23 0.951E-23   0.158E-12 0.478E-13 -.371E-12
   0.438E-12 -.113E-11 0.130E-10   0.275E-13 0.332E-13 -.510E-14   0.334E-22 0.149E-22 -.141E-22   0.135E-12 0.819E-13 0.868E-12
   0.359E-12 0.511E-11 -.108E-11   0.899E-14 0.634E-13 0.975E-15   -.265E-22 0.116E-22 0.165E-23   0.263E-12 -.501E-13 -.362E-12
 -----------------------------------------------------------------------------------------------
   0.354E-10 0.109E-09 -.592E-10   -.270E-12 -.521E-13 0.120E-12   0.115E-20 -.570E-21 0.379E-21   0.600E-11 0.209E-11 0.221E-11
 
 
 POSITION                                       TOTAL-FORCE (eV/Angst)
 -----------------------------------------------------------------------------------
      0.00000      0.00000      0.00000         0.000000     -0.000000     -0.000000
      0.00000      0.00000      4.17383         0.000000     -0.000000      0.000000
      0.00000      4.17383      0.00000        -0.000000     -0.000000     -0.000000
      0.00000      4.17383      4.17383        -0.000000     -0.000000      0.000000
      4.17383      0.00000      0.00000        -0.000000      0.000000      0.000000
      4.17383      0.00000      4.17383        -0.000000      0.000000      0.000000
      4.17383      4.17383      0.00000        -0.000000     -0.000000     -0.000000
      4.17383      4.17383      4.17383         0.000000      0.000000     -0.000000
      2.08692      2.08692      0.00000         0.000000     -0.000000     -0.000000
      2.08692      2.08692      4.17383        -0.000000      0.000000      0.000000
      2.08692      6.26075      0.00000        -0.000000      0.000000      0.000000
      2.08692      6.26075      4.17383        -0.000000     -0.000000     -0.000000
      6.26075      2.08692      0.00000        -0.000000      0.000000      0.000000
      6.26075      2.08692      4.17383        -0.000000      0.000000      0.000000
      6.26075      6.26075      0.00000         0.000000     -0.000000     -0.000000
      6.26075      6.26075      4.17383         0.000000      0.000000     -0.000000
      2.08692      0.00000      2.08692         0.000000      0.000000      0.000000
      2.08692      0.00000      6.26075        -0.000000     -0.000000      0.000000
      2.08692      4.17383      2.08692        -0.000000      0.000000      0.000000
      2.08692      4.17383      6.26075         0.000000     -0.000000      0.000000
      6.26075      0.00000      2.08692        -0.000000     -0.000000     -0.000000
      6.26075      0.00000      6.26075        -0.000000     -0.000000      0.000000
      6.26075      4.17383      2.08692         0.000000      0.000000     -0.000000
      6.26075      4.17383      6.26075        -0.000000     -0.000000      0.000000
      0.00000      2.08692      2.08692        -0.000000     -0.000000      0.000000
      0.00000      2.08692      6.26075         0.000000      0.000000      0.000000
      0.00000      6.26075      2.08692         0.000000      0.000000     -0.000000
      0.00000      6.26075      6.26075        -0.000000     -0.000000     -0.000000
      4.17383      2.08692      2.08692         0.000000      0.000000      0.000000
      4.17383      2.08692      6.26075        -0.000000     -0.000000      0.000000
      4.17383      6.26075      2.08692        -0.000000     -0.000000     -0.000000
      4.17383      6.26075      6.26075        -0.000000      0.000000     -0.000000
      2.08692      2.08692      2.08692         0.000000     -0.000000      0.000000
      2.08692      2.08692      6.26075         0.000000     -0.000000      0.000000
      2.08692      6.26075      2.08692        -0.000000      0.000000     -0.000000
      2.08692      6.26075      6.26075        -0.000000      0.000000     -0.000000
      6.26075      2.08692      2.08692         0.000000      0.000000     -0.000000
      6.26075      2.08692      6.26075        -0.000000      0.000000     -0.000000
      6.26075      6.26075      2.08692         0.000000     -0.000000      0.000000
      6.26075      6.26075      6.26075         0.000000     -0.000000      0.000000
      0.00000      0.00000      2.08692        -0.000000     -0.000000     -0.000000
      0.00000      0.00000      6.26075         0.000000     -0.000000     -0.000000
      0.00000      4.17383      2.08692        -0.000000      0.000000     -0.000000
      0.00000      4.17383      6.26075        -0.000000      0.000000      0.000000
      4.17383      0.00000      2.08692         0.000000      0.000000     -0.000000
      4.17383      0.00000      6.26075         0.000000      0.000000     -0.000000
      4.17383      4.17383      2.08692         0.000000     -0.000000      0.000000
      4.17383      4.17383      6.26075         0.000000     -0.000000      0.000000
      0.00000      2.08692      0.00000        -0.000000     -0.000000      0.000000
      0.00000      2.08692      4.17383         0.000000      0.000000     -0.000000
      0.00000      6.26075      0.00000        -0.000000      0.000000      0.000000
      0.00000      6.26075      4.17383        -0.000000      0.000000     -0.000000
      4.17383      2.08692      0.00000         0.000000      0.000000      0.000000
      4.17383      2.08692      4.17383         0.000000     -0.000000     -0.000000
      4.17383      6.26075      0.00000         0.000000     -0.000000      0.000000
      4.17383      6.26075      4.17383         0.000000     -0.000000      0.000000
      2.08692      0.00000      0.00000         0.000000      0.000000     -0.000000
      2.08692      0.00000      4.17383         0.000000     -0.000000     -0.000000
      2.08692      4.17383      0.00000         0.000000     -0.000000      0.000000
      2.08692      4.17383      4.17383         0.000000     -0.000000      0.000000
      6.26075      0.00000      0.00000         0.000000      0.000000      0.000000
      6.26075      0.00000      4.17383         0.000000      0.000000     -0.000000
      6.26075      4.17383      0.00000        -0.000000      0.000000     -0.000000
      6.26075      4.17383      4.17383         0.000000      0.000000      0.000000
 -----------------------------------------------------------------------------------
    total drift:                                0.000000      0.000000     -0.000000


--------------------------------------------------------------------------------------------------------



  FREE ENERGIE OF THE ION-ELECTRON SYSTEM (eV)
  ---------------------------------------------------
  free  energy   TOTEN  =      -392.99920104 eV

  energy  without entropy=     -392.99920104  energy(sigma->0) =     -392.99920104
 


--------------------------------------------------------------------------------------------------------


    POTLOK:  cpu time    1.3620: real time    1.3615


--------------------------------------------------------------------------------------------------------


 writing wavefunctions
     LOOP+:  cpu time  614.7912: real time  615.2215
    4ORBIT:  cpu time    0.0000: real time    0.0000
 


 total charge     
 
# of ion       s       p       d       f       tot
--------------------------------------------------
    1        2.149   6.210   7.852   0.009  16.220
    2        2.149   6.210   7.852   0.009  16.220
    3        2.149   6.210   7.852   0.009  16.220
    4        2.149   6.210   7.852   0.009  16.220
    5        2.149   6.210   7.852   0.009  16.220
    6        2.149   6.210   7.852   0.009  16.220
    7        2.149   6.210   7.852   0.009  16.220
    8        2.149   6.210   7.852   0.009  16.220
    9        2.149   6.210   7.852   0.009  16.220
   10        2.149   6.210   7.852   0.009  16.220
   11        2.149   6.210   7.852   0.009  16.220
   12        2.149   6.210   7.852   0.009  16.220
   13        2.149   6.210   7.852   0.009  16.220
   14        2.149   6.210   7.852   0.009  16.220
   15        2.149   6.210   7.852   0.009  16.220
   16        2.149   6.210   7.852   0.009  16.220
   17        2.149   6.210   7.852   0.009  16.220
   18        2.149   6.210   7.852   0.009  16.220
   19        2.149   6.210   7.852   0.009  16.220
   20        2.149   6.210   7.852   0.009  16.220
   21        2.149   6.210   7.852   0.009  16.220
   22        2.149   6.210   7.852   0.009  16.220
   23        2.149   6.210   7.852   0.009  16.220
   24        2.149   6.210   7.852   0.009  16.220
   25        2.149   6.210   7.852   0.009  16.220
   26        2.149   6.210   7.852   0.009  16.220
   27        2.149   6.210   7.852   0.009  16.220
   28        2.149   6.210   7.852   0.009  16.220
   29        2.149   6.210   7.852   0.009  16.220
   30        2.149   6.210   7.852   0.009  16.220
   31        2.149   6.210   7.852   0.009  16.220
   32        2.149   6.210   7.852   0.009  16.220
   33        1.635   3.515   0.021   0.000   5.171
   34        1.635   3.515   0.021   0.000   5.171
   35        1.635   3.515   0.021   0.000   5.171
   36        1.635   3.515   0.021   0.000   5.171
   37        1.635   3.515   0.021   0.000   5.171
   38        1.635   3.515   0.021   0.000   5.171
   39        1.635   3.515   0.021   0.000   5.171
   40        1.635   3.515   0.021   0.000   5.171
   41        1.635   3.515   0.021   0.000   5.171
   42        1.635   3.515   0.021   0.000   5.171
   43        1.635   3.515   0.021   0.000   5.171
   44        1.635   3.515   0.021   0.000   5.171
   45        1.635   3.515   0.021   0.000   5.171
   46        1.635   3.515   0.021   0.000   5.171
   47        1.635   3.515   0.021   0.000   5.171
   48        1.635   3.515   0.021   0.000   5.171
   49        1.635   3.515   0.021   0.000   5.171
   50        1.635   3.515   0.021   0.000   5.171
   51        1.635   3.515   0.021   0.000   5.171
   52        1.635   3.515   0.021   0.000   5.171
   53        1.635   3.515   0.021   0.000   5.171
   54        1.635   3.515   0.021   0.000   5.171
   55        1.635   3.515   0.021   0.000   5.171
   56        1.635   3.515   0.021   0.000   5.171
   57        1.635   3.515   0.021   0.000   5.171
   58        1.635   3.515   0.021   0.000   5.171
   59        1.635   3.515   0.021   0.000   5.171
   60        1.635   3.515   0.021   0.000   5.171
   61        1.635   3.515   0.021   0.000   5.171
   62        1.635   3.515   0.021   0.000   5.171
   63        1.635   3.515   0.021   0.000   5.171
   64        1.635   3.515   0.021   0.000   5.171
--------------------------------------------------
tot        121.089 311.208 251.911   0.295 684.504

 


 magnetization (x)
 
# of ion       s       p       d       f       tot
--------------------------------------------------
    1        0.007   0.008   0.644   0.000   0.659
    2        0.007   0.008   0.644   0.000   0.659
    3        0.007   0.008   0.644   0.000   0.659
    4        0.007   0.008   0.644   0.000   0.659
    5        0.007   0.008   0.644   0.000   0.659
    6        0.007   0.008   0.644   0.000   0.659
    7        0.007   0.008   0.644   0.000   0.659
    8        0.007   0.008   0.644   0.000   0.659
    9        0.007   0.008   0.644   0.000   0.659
   10        0.007   0.008   0.644   0.000   0.659
   11        0.007   0.008   0.644   0.000   0.659
   12        0.007   0.008   0.644   0.000   0.659
   13        0.007   0.008   0.644   0.000   0.659
   14        0.007   0.008   0.644   0.000   0.659
   15        0.007   0.008   0.644   0.000   0.659
   16        0.007   0.008   0.644   0.000   0.659
   17       -0.007  -0.008  -0.644  -0.000  -0.659
   18       -0.007  -0.008  -0.644  -0.000  -0.659
   19       -0.007  -0.008  -0.644  -0.000  -0.659
   20       -0.007  -0.008  -0.644  -0.000  -0.659
   21       -0.007  -0.008  -0.644  -0.000  -0.659
   22       -0.007  -0.008  -0.644  -0.000  -0.659
   23       -0.007  -0.008  -0.644  -0.000  -0.659
   24       -0.007  -0.008  -0.644  -0.000  -0.659
   25       -0.007  -0.008  -0.644  -0.000  -0.659
   26       -0.007  -0.008  -0.644  -0.000  -0.659
   27       -0.007  -0.008  -0.644  -0.000  -0.659
   28       -0.007  -0.008  -0.644  -0.000  -0.659
   29       -0.007  -0.008  -0.644  -0.000  -0.659
   30       -0.007  -0.008  -0.644  -0.000  -0.659
   31       -0.007  -0.008  -0.644  -0.000  -0.659
   32       -0.007  -0.008  -0.644  -0.000  -0.659
   33       -0.005  -0.028  -0.000   0.000  -0.034
   34       -0.005  -0.028  -0.000   0.000  -0.034
   35       -0.005  -0.028  -0.000   0.000  -0.034
   36       -0.005  -0.028  -0.000   0.000  -0.034
   37       -0.005  -0.028  -0.000   0.000  -0.034
   38       -0.005  -0.028  -0.000   0.000  -0.034
   39       -0.005  -0.028  -0.000   0.000  -0.034
   40       -0.005  -0.028  -0.000   0.000  -0.034
   41       -0.005  -0.028  -0.000   0.000  -0.034
   42       -0.005  -0.028  -0.000   0.000  -0.034
   43       -0.005  -0.028  -0.000   0.000  -0.034
   44       -0.005  -0.028  -0.000   0.000  -0.034
   45       -0.005  -0.028  -0.000   0.000  -0.034
   46       -0.005  -0.028  -0.000   0.000  -0.034
   47       -0.005  -0.028  -0.000   0.000  -0.034
   48       -0.005  -0.028  -0.000   0.000  -0.034
   49        0.005   0.028   0.000   0.000   0.034
   50        0.005   0.028   0.000   0.000   0.034
   51        0.005   0.028   0.000   0.000   0.034
   52        0.005   0.028   0.000   0.000   0.034
   53        0.005   0.028   0.000   0.000   0.034
   54        0.005   0.028   0.000   0.000   0.034
   55        0.005   0.028   0.000   0.000   0.034
   56        0.005   0.028   0.000   0.000   0.034
   57        0.005   0.028   0.000   0.000   0.034
   58        0.005   0.028   0.000   0.000   0.034
   59        0.005   0.028   0.000   0.000   0.034
   60        0.005   0.028   0.000   0.000   0.034
   61        0.005   0.028   0.000   0.000   0.034
   62        0.005   0.028   0.000   0.000   0.034
   63        0.005   0.028   0.000   0.000   0.034
   64        0.005   0.028   0.000   0.000   0.034
--------------------------------------------------
tot         -0.000   0.000   0.000   0.000   0.000

 
