 vasp.5.4.4.18Apr17-6-g9f103f2a35 (build Oct 10 2019 09:51:33) complex          
  
 executed on   carbon_intel19_gpu date 2020.09.25  15:34:14
 running on    1 total cores
 distrk:  each k-point on    1 cores,    1 groups
 distr:  one band on NCORES_PER_BAND=   1 cores,    1 groups


--------------------------------------------------------------------------------------------------------


 INCAR:
 POTCAR:    PAW_PBE Ni_sv_GW 05Dec2013            
 POTCAR:    PAW_PBE O_GW 19Mar2012                
 POTCAR:    PAW_PBE Ni_sv_GW 05Dec2013            
   VRHFIN =Ni:                                                                  
   LEXCH  = PE                                                                  
   EATOM  =  4642.8712 eV,  341.2414 Ry                                         
                                                                                
   TITEL  = PAW_PBE Ni_sv_GW 05Dec2013                                          
   LULTRA =        F    use ultrasoft PP ?                                      
   IUNSCR =        1    unscreen: 0-lin 1-nonlin 2-no                           
   RPACOR =    1.400    partial core radius                                     
   POMASS =   58.690; ZVAL   =   18.000    mass and valenz                      
   RCORE  =    1.900    outmost cutoff radius                                   
   RWIGS  =    2.100; RWIGS  =    1.111    wigner-seitz radius (au A)           
   ENMAX  =  389.645; ENMIN  =  292.234 eV                                      
   RCLOC  =    1.301    cutoff for local pot                                    
   LCOR   =        T    correct aug charges                                     
   LPAW   =        T    paw PP                                                  
   EAUG   = 1036.387                                                            
   RMAX   =    1.945    core radius for proj-oper                               
   RAUG   =    1.300    factor for augmentation sphere                          
   RDEP   =    1.972    radius for radial grids                                 
   RDEPT  =    1.600    core radius for aug-charge                              
                                                                                
   Atomic configuration                                                         
    8 entries                                                                   
     n  l   j            E        occ.                                          
     1  0  0.50     -8203.3308   2.0000                                         
     2  0  0.50      -972.7019   2.0000                                         
     2  1  1.50      -835.6236   6.0000                                         
     3  0  0.50      -102.6944   2.0000                                         
     3  1  1.50       -63.2363   6.0000                                         
     3  1  1.50       -68.0291   0.0000                                         
     3  2  2.50        -1.9692  10.0000                                         
     4  3  2.50        -1.3606   0.0000                                         
   Description                                                                  
     l       E           TYP  RCUT    TYP  RCUT                                 
     0   -102.6944069     23  1.400                                             
     0      1.3605826     23  1.700                                             
     0    204.0873900     23  1.400                                             
     1    -63.2363356     23  1.650                                             
     1    -68.0291300     23  1.650                                             
     1    136.0582600     23  1.650                                             
     2     -1.9691936     23  1.900                                             
     2     27.2116520     23  1.900                                             
     2    136.0582600     23  1.900                                             
     3     27.2116520     23  1.900                                             
     3    136.0582600     23  1.900                                             
  local pseudopotential read in
  partial core-charges read in
  partial kinetic energy density read in
  kinetic energy density of atom read in
  atomic valenz-charges read in
  non local Contribution for L=           0  read in
    real space projection operators read in
  non local Contribution for L=           0  read in
    real space projection operators read in
  non local Contribution for L=           0  read in
    real space projection operators read in
  non local Contribution for L=           1  read in
    real space projection operators read in
  non local Contribution for L=           1  read in
    real space projection operators read in
  non local Contribution for L=           1  read in
    real space projection operators read in
  non local Contribution for L=           2  read in
    real space projection operators read in
  non local Contribution for L=           2  read in
    real space projection operators read in
  non local Contribution for L=           2  read in
    real space projection operators read in
  non local Contribution for L=           3  read in
    real space projection operators read in
  non local Contribution for L=           3  read in
    real space projection operators read in
    PAW grid and wavefunctions read in
 
   number of l-projection  operators is LMAX  =          11
   number of lm-projection operators is LMMAX =          41
 
 POTCAR:    PAW_PBE O_GW 19Mar2012                
   VRHFIN =O: s2p4                                                              
   LEXCH  = PE                                                                  
   EATOM  =   432.3788 eV,   31.7789 Ry                                         
                                                                                
   TITEL  = PAW_PBE O_GW 19Mar2012                                              
   LULTRA =        F    use ultrasoft PP ?                                      
   IUNSCR =        1    unscreen: 0-lin 1-nonlin 2-no                           
   RPACOR =    0.800    partial core radius                                     
   POMASS =   16.000; ZVAL   =    6.000    mass and valenz                      
   RCORE  =    1.600    outmost cutoff radius                                   
   RWIGS  =    1.600; RWIGS  =    0.847    wigner-seitz radius (au A)           
   ENMAX  =  434.431; ENMIN  =  325.824 eV                                      
   ICORE  =        3    local potential                                         
   LCOR   =        T    correct aug charges                                     
   LPAW   =        T    paw PP                                                  
   EAUG   = 1139.609                                                            
   DEXC   =    0.000                                                            
   RMAX   =    1.629    core radius for proj-oper                               
   RAUG   =    1.300    factor for augmentation sphere                          
   RDEP   =    1.652    radius for radial grids                                 
   RDEPT  =    1.200    core radius for aug-charge                              
                                                                                
   Atomic configuration                                                         
    5 entries                                                                   
     n  l   j            E        occ.                                          
     1  0  0.50      -514.6923   2.0000                                         
     2  0  0.50       -23.9615   2.0000                                         
     2  1  0.50        -9.0305   4.0000                                         
     3  2  1.50        -9.5241   0.0000                                         
     4  3  2.50        -9.5241   0.0000                                         
   Description                                                                  
     l       E           TYP  RCUT    TYP  RCUT                                 
     0    -23.9615316     23  1.150                                             
     0    -25.3221142     23  1.150                                             
     0    244.9048680     23  1.300                                             
     1     -9.0304908     23  1.500                                             
     1     -6.9258396     23  1.500                                             
     1    122.4524340     23  1.500                                             
     2     13.6058260     23  1.500                                             
     2    190.4815640     23  1.600                                             
     3     54.4233040     23  1.400                                             
  local pseudopotential read in
  partial core-charges read in
  partial kinetic energy density read in
  kinetic energy density of atom read in
  atomic valenz-charges read in
  non local Contribution for L=           0  read in
    real space projection operators read in
  non local Contribution for L=           0  read in
    real space projection operators read in
  non local Contribution for L=           0  read in
    real space projection operators read in
  non local Contribution for L=           1  read in
    real space projection operators read in
  non local Contribution for L=           1  read in
    real space projection operators read in
  non local Contribution for L=           1  read in
    real space projection operators read in
  non local Contribution for L=           2  read in
    real space projection operators read in
  non local Contribution for L=           2  read in
    real space projection operators read in
    PAW grid and wavefunctions read in
 
   number of l-projection  operators is LMAX  =           8
   number of lm-projection operators is LMMAX =          22
 
 Optimization of the real space projectors (new method)

 maximal supplied QI-value         = 19.84
 optimisation between [QCUT,QGAM] = [ 12.50, 25.00] = [ 43.76,175.03] Ry 
 Optimized for a Real-space Cutoff    1.31 Angstroem

   l    n(q)    QCUT    max X(q) W(low)/X(q) W(high)/X(q)  e(spline) 
   0     10    12.501     2.300    0.65E-05    0.25E-06    0.79E-07
   0     10    12.501     7.576    0.25E-04    0.52E-05    0.18E-06
   0     10    12.501     1.388    0.34E-04    0.75E-05    0.48E-06
   1      9    12.501    11.002    0.11E-03    0.24E-03    0.54E-06
   1      9    12.501    14.537    0.90E-04    0.23E-03    0.70E-06
   1      9    12.501     3.893    0.34E-04    0.51E-04    0.68E-06
   2      9    12.501    14.869    0.32E-03    0.35E-03    0.49E-06
   2      9    12.501     7.291    0.12E-03    0.20E-03    0.30E-06
   2      9    12.501     6.907    0.35E-03    0.37E-03    0.52E-06
   3      8    12.501    10.598    0.33E-03    0.15E-03    0.57E-06
   3      8    12.501     2.997    0.28E-03    0.16E-03    0.51E-06
 Optimization of the real space projectors (new method)

 maximal supplied QI-value         = 23.62
 optimisation between [QCUT,QGAM] = [ 12.52, 25.04] = [ 43.89,175.56] Ry 
 Optimized for a Real-space Cutoff    1.35 Angstroem

   l    n(q)    QCUT    max X(q) W(low)/X(q) W(high)/X(q)  e(spline) 
   0     10    12.519   116.464    0.13E-03    0.15E-03    0.46E-05
   0     10    12.519   116.329    0.13E-03    0.15E-03    0.44E-05
   0     10    12.519     0.942    0.35E-04    0.90E-04    0.23E-05
   1     10    12.519   133.003    0.28E-03    0.77E-04    0.26E-05
   1     10    12.519   116.443    0.28E-03    0.76E-04    0.26E-05
   1     10    12.519     2.481    0.45E-03    0.95E-04    0.45E-05
   2      9    12.519     2.237    0.21E-04    0.33E-04    0.21E-06
   2      9    12.519     2.497    0.16E-03    0.12E-03    0.32E-06
  PAW_PBE Ni_sv_GW 05Dec2013            :
 energy of atom  1       EATOM=-4642.8712
 kinetic energy error for atom=    0.0555 (will be added to EATOM!!)
  PAW_PBE O_GW 19Mar2012                :
 energy of atom  2       EATOM= -432.3788
 kinetic energy error for atom=    0.0188 (will be added to EATOM!!)
 
 
 POSCAR: NiO                                     
  positions in direct lattice
  No initial velocities read in
 exchange correlation table for  LEXCH =        8
   RHO(1)=    0.500       N(1)  =     2000
   RHO(2)=  100.500       N(2)  =     4000
 


--------------------------------------------------------------------------------------------------------


 ion  position               nearest neighbor table
   1  0.000  0.000  0.000-  33 2.09  37 2.09  49 2.09  50 2.09  57 2.09  59 2.09
   2  0.000  0.000  0.500-  34 2.09  38 2.09  49 2.09  50 2.09  58 2.09  60 2.09
   3  0.000  0.500  0.000-  35 2.09  39 2.09  51 2.09  52 2.09  57 2.09  59 2.09
   4  0.000  0.500  0.500-  36 2.09  40 2.09  51 2.09  52 2.09  58 2.09  60 2.09
   5  0.500  0.000  0.000-  33 2.09  37 2.09  53 2.09  54 2.09  61 2.09  63 2.09
   6  0.500  0.000  0.500-  34 2.09  38 2.09  53 2.09  54 2.09  62 2.09  64 2.09
   7  0.500  0.500  0.000-  35 2.09  39 2.09  55 2.09  56 2.09  61 2.09  63 2.09
   8  0.500  0.500  0.500-  36 2.09  40 2.09  55 2.09  56 2.09  62 2.09  64 2.09
   9  0.000  0.250  0.250-  41 2.09  45 2.09  49 2.09  51 2.09  57 2.09  58 2.09
  10  0.000  0.250  0.750-  42 2.09  46 2.09  50 2.09  52 2.09  57 2.09  58 2.09
  11  0.000  0.750  0.250-  43 2.09  47 2.09  49 2.09  51 2.09  59 2.09  60 2.09
  12  0.000  0.750  0.750-  44 2.09  48 2.09  50 2.09  52 2.09  59 2.09  60 2.09
  13  0.500  0.250  0.250-  41 2.09  45 2.09  53 2.09  55 2.09  61 2.09  62 2.09
  14  0.500  0.250  0.750-  42 2.09  46 2.09  54 2.09  56 2.09  61 2.09  62 2.09
  15  0.500  0.750  0.250-  43 2.09  47 2.09  53 2.09  55 2.09  63 2.09  64 2.09
  16  0.500  0.750  0.750-  44 2.09  48 2.09  54 2.09  56 2.09  63 2.09  64 2.09
  17  0.250  0.000  0.250-  33 2.09  34 2.09  41 2.09  43 2.09  49 2.09  53 2.09
  18  0.250  0.000  0.750-  33 2.09  34 2.09  42 2.09  44 2.09  50 2.09  54 2.09
  19  0.250  0.500  0.250-  35 2.09  36 2.09  41 2.09  43 2.09  51 2.09  55 2.09
  20  0.250  0.500  0.750-  35 2.09  36 2.09  42 2.09  44 2.09  52 2.09  56 2.09
  21  0.750  0.000  0.250-  37 2.09  38 2.09  45 2.09  47 2.09  49 2.09  53 2.09
  22  0.750  0.000  0.750-  37 2.09  38 2.09  46 2.09  48 2.09  50 2.09  54 2.09
  23  0.750  0.500  0.250-  39 2.09  40 2.09  45 2.09  47 2.09  51 2.09  55 2.09
  24  0.750  0.500  0.750-  39 2.09  40 2.09  46 2.09  48 2.09  52 2.09  56 2.09
  25  0.250  0.250  0.000-  33 2.09  35 2.09  41 2.09  42 2.09  57 2.09  61 2.09
  26  0.250  0.250  0.500-  34 2.09  36 2.09  41 2.09  42 2.09  58 2.09  62 2.09
  27  0.250  0.750  0.000-  33 2.09  35 2.09  43 2.09  44 2.09  59 2.09  63 2.09
  28  0.250  0.750  0.500-  34 2.09  36 2.09  43 2.09  44 2.09  60 2.09  64 2.09
  29  0.750  0.250  0.000-  37 2.09  39 2.09  45 2.09  46 2.09  57 2.09  61 2.09
  30  0.750  0.250  0.500-  38 2.09  40 2.09  45 2.09  46 2.09  58 2.09  62 2.09
  31  0.750  0.750  0.000-  37 2.09  39 2.09  47 2.09  48 2.09  59 2.09  63 2.09
  32  0.750  0.750  0.500-  38 2.09  40 2.09  47 2.09  48 2.09  60 2.09  64 2.09
  33  0.250  0.000  0.000-   1 2.09   5 2.09  17 2.09  18 2.09  25 2.09  27 2.09
  34  0.250  0.000  0.500-   2 2.09   6 2.09  17 2.09  18 2.09  26 2.09  28 2.09
  35  0.250  0.500  0.000-   3 2.09   7 2.09  19 2.09  20 2.09  25 2.09  27 2.09
  36  0.250  0.500  0.500-   4 2.09   8 2.09  19 2.09  20 2.09  26 2.09  28 2.09
  37  0.750  0.000  0.000-   1 2.09   5 2.09  21 2.09  22 2.09  29 2.09  31 2.09
  38  0.750  0.000  0.500-   2 2.09   6 2.09  21 2.09  22 2.09  30 2.09  32 2.09
  39  0.750  0.500  0.000-   3 2.09   7 2.09  23 2.09  24 2.09  29 2.09  31 2.09
  40  0.750  0.500  0.500-   4 2.09   8 2.09  23 2.09  24 2.09  30 2.09  32 2.09
  41  0.250  0.250  0.250-   9 2.09  13 2.09  17 2.09  19 2.09  25 2.09  26 2.09
  42  0.250  0.250  0.750-  10 2.09  14 2.09  18 2.09  20 2.09  25 2.09  26 2.09
  43  0.250  0.750  0.250-  11 2.09  15 2.09  17 2.09  19 2.09  27 2.09  28 2.09
  44  0.250  0.750  0.750-  12 2.09  16 2.09  18 2.09  20 2.09  27 2.09  28 2.09
  45  0.750  0.250  0.250-   9 2.09  13 2.09  21 2.09  23 2.09  29 2.09  30 2.09
  46  0.750  0.250  0.750-  10 2.09  14 2.09  22 2.09  24 2.09  29 2.09  30 2.09
  47  0.750  0.750  0.250-  11 2.09  15 2.09  21 2.09  23 2.09  31 2.09  32 2.09
  48  0.750  0.750  0.750-  12 2.09  16 2.09  22 2.09  24 2.09  31 2.09  32 2.09
  49  0.000  0.000  0.250-   1 2.09   2 2.09   9 2.09  11 2.09  17 2.09  21 2.09
  50  0.000  0.000  0.750-   1 2.09   2 2.09  10 2.09  12 2.09  18 2.09  22 2.09
  51  0.000  0.500  0.250-   3 2.09   4 2.09   9 2.09  11 2.09  19 2.09  23 2.09
  52  0.000  0.500  0.750-   3 2.09   4 2.09  10 2.09  12 2.09  20 2.09  24 2.09
  53  0.500  0.000  0.250-   5 2.09   6 2.09  13 2.09  15 2.09  17 2.09  21 2.09
  54  0.500  0.000  0.750-   5 2.09   6 2.09  14 2.09  16 2.09  18 2.09  22 2.09
  55  0.500  0.500  0.250-   7 2.09   8 2.09  13 2.09  15 2.09  19 2.09  23 2.09
  56  0.500  0.500  0.750-   7 2.09   8 2.09  14 2.09  16 2.09  20 2.09  24 2.09
  57  0.000  0.250  0.000-   1 2.09   3 2.09   9 2.09  10 2.09  25 2.09  29 2.09
  58  0.000  0.250  0.500-   2 2.09   4 2.09   9 2.09  10 2.09  26 2.09  30 2.09
  59  0.000  0.750  0.000-   1 2.09   3 2.09  11 2.09  12 2.09  27 2.09  31 2.09
  60  0.000  0.750  0.500-   2 2.09   4 2.09  11 2.09  12 2.09  28 2.09  32 2.09
  61  0.500  0.250  0.000-   5 2.09   7 2.09  13 2.09  14 2.09  25 2.09  29 2.09
  62  0.500  0.250  0.500-   6 2.09   8 2.09  13 2.09  14 2.09  26 2.09  30 2.09
  63  0.500  0.750  0.000-   5 2.09   7 2.09  15 2.09  16 2.09  27 2.09  31 2.09
  64  0.500  0.750  0.500-   6 2.09   8 2.09  15 2.09  16 2.09  28 2.09  32 2.09
 
  LATTYP: Found a simple cubic cell.
 ALAT       =     8.3731650000
  
  Lattice vectors:
  
 A1 = (   8.3731650000,   0.0000000000,   0.0000000000)
 A2 = (   0.0000000000,   8.3731650000,   0.0000000000)
 A3 = (   0.0000000000,   0.0000000000,   8.3731650000)


Analysis of symmetry for initial positions (statically):
=====================================================================
 Subroutine PRICEL returns following result:
 
  LATTYP: Found a face centered cubic cell.
 ALAT       =     4.1865825000
  
  Lattice vectors:
  
 A1 = (   2.0932912500,   2.0932912500,   0.0000000000)
 A2 = (   2.0932912500,   0.0000000000,  -2.0932912500)
 A3 = (   0.0000000000,   2.0932912500,  -2.0932912500)
 
  32 primitive cells build up your supercell.
 

 Routine SETGRP: Setting up the symmetry group for a 
 simple cubic supercell.


 Subroutine GETGRP returns: Found 48 space group operations
 (whereof 48 operations were pure point group operations)
 out of a pool of 48 trial point group operations.


The static configuration has the point symmetry O_h .


Analysis of symmetry for dynamics (positions and initial velocities):
=====================================================================
 Subroutine PRICEL returns following result:
 
  LATTYP: Found a face centered cubic cell.
 ALAT       =     4.1865825000
  
  Lattice vectors:
  
 A1 = (   2.0932912500,   2.0932912500,   0.0000000000)
 A2 = (   2.0932912500,   0.0000000000,  -2.0932912500)
 A3 = (   0.0000000000,   2.0932912500,  -2.0932912500)
 
  32 primitive cells build up your supercell.
 

 Routine SETGRP: Setting up the symmetry group for a 
 simple cubic supercell.


 Subroutine GETGRP returns: Found 48 space group operations
 (whereof 48 operations were pure point group operations)
 out of a pool of 48 trial point group operations.


The dynamic configuration has the point symmetry O_h .


Analysis of structural, dynamic, and magnetic symmetry:
=====================================================================
 Subroutine PRICEL returns following result:
 
  LATTYP: Found a face centered cubic cell.
 ALAT       =     4.1865825000
  
  Lattice vectors:
  
 A1 = (   2.0932912500,   2.0932912500,   0.0000000000)
 A2 = (   2.0932912500,   0.0000000000,  -2.0932912500)
 A3 = (   0.0000000000,   2.0932912500,  -2.0932912500)
 
  32 primitive cells build up your supercell.
 

 Routine SETGRP: Setting up the symmetry group for a 
 simple cubic supercell.


 Subroutine GETGRP returns: Found 48 space group operations
 (whereof 48 operations were pure point group operations)
 out of a pool of 48 trial point group operations.


The magnetic configuration has the point symmetry O_h .


 Subroutine INISYM returns: Found 48 space group operations
 (whereof 48 operations are pure point group operations),
 and found    32 'primitive' translations

 
 
 KPOINTS: k-points                                

Automatic generation of k-mesh.
Space group operators:
 irot       det(A)        alpha          n_x          n_y          n_z        tau_x        tau_y        tau_z
    1     1.000000     0.000000     1.000000     0.000000     0.000000     0.000000     0.000000     0.000000
    2    -1.000000     0.000000     1.000000     0.000000     0.000000     0.000000     0.000000     0.000000
    3     1.000000   120.000000    -0.577350    -0.577350    -0.577350     0.000000     0.000000     0.000000
    4    -1.000000   120.000000    -0.577350    -0.577350    -0.577350     0.000000     0.000000     0.000000
    5     1.000000   120.000000     0.577350     0.577350     0.577350     0.000000     0.000000     0.000000
    6    -1.000000   120.000000     0.577350     0.577350     0.577350     0.000000     0.000000     0.000000
    7     1.000000    90.000000     0.000000     0.000000    -1.000000     0.000000     0.000000     0.000000
    8    -1.000000    90.000000     0.000000     0.000000    -1.000000     0.000000     0.000000     0.000000
    9     1.000000   180.000000     0.000000     0.707107     0.707107     0.000000     0.000000     0.000000
   10    -1.000000   180.000000     0.000000     0.707107     0.707107     0.000000     0.000000     0.000000
   11     1.000000    90.000000     0.000000     1.000000     0.000000     0.000000     0.000000     0.000000
   12    -1.000000    90.000000     0.000000     1.000000     0.000000     0.000000     0.000000     0.000000
   13     1.000000   180.000000     0.000000     0.000000     1.000000     0.000000     0.000000     0.000000
   14    -1.000000   180.000000     0.000000     0.000000     1.000000     0.000000     0.000000     0.000000
   15     1.000000   120.000000    -0.577350     0.577350     0.577350     0.000000     0.000000     0.000000
   16    -1.000000   120.000000    -0.577350     0.577350     0.577350     0.000000     0.000000     0.000000
   17     1.000000   120.000000    -0.577350     0.577350    -0.577350     0.000000     0.000000     0.000000
   18    -1.000000   120.000000    -0.577350     0.577350    -0.577350     0.000000     0.000000     0.000000
   19     1.000000    90.000000     0.000000     0.000000     1.000000     0.000000     0.000000     0.000000
   20    -1.000000    90.000000     0.000000     0.000000     1.000000     0.000000     0.000000     0.000000
   21     1.000000    90.000000    -1.000000     0.000000     0.000000     0.000000     0.000000     0.000000
   22    -1.000000    90.000000    -1.000000     0.000000     0.000000     0.000000     0.000000     0.000000
   23     1.000000   180.000000     0.707107     0.000000     0.707107     0.000000     0.000000     0.000000
   24    -1.000000   180.000000     0.707107     0.000000     0.707107     0.000000     0.000000     0.000000
   25     1.000000   120.000000     0.577350    -0.577350     0.577350     0.000000     0.000000     0.000000
   26    -1.000000   120.000000     0.577350    -0.577350     0.577350     0.000000     0.000000     0.000000
   27     1.000000   120.000000    -0.577350    -0.577350     0.577350     0.000000     0.000000     0.000000
   28    -1.000000   120.000000    -0.577350    -0.577350     0.577350     0.000000     0.000000     0.000000
   29     1.000000   180.000000     1.000000     0.000000     0.000000     0.000000     0.000000     0.000000
   30    -1.000000   180.000000     1.000000     0.000000     0.000000     0.000000     0.000000     0.000000
   31     1.000000    90.000000     0.000000    -1.000000     0.000000     0.000000     0.000000     0.000000
   32    -1.000000    90.000000     0.000000    -1.000000     0.000000     0.000000     0.000000     0.000000
   33     1.000000   180.000000     0.707107     0.707107     0.000000     0.000000     0.000000     0.000000
   34    -1.000000   180.000000     0.707107     0.707107     0.000000     0.000000     0.000000     0.000000
   35     1.000000    90.000000     1.000000     0.000000     0.000000     0.000000     0.000000     0.000000
   36    -1.000000    90.000000     1.000000     0.000000     0.000000     0.000000     0.000000     0.000000
   37     1.000000   120.000000     0.577350    -0.577350    -0.577350     0.000000     0.000000     0.000000
   38    -1.000000   120.000000     0.577350    -0.577350    -0.577350     0.000000     0.000000     0.000000
   39     1.000000   180.000000     0.000000     1.000000     0.000000     0.000000     0.000000     0.000000
   40    -1.000000   180.000000     0.000000     1.000000     0.000000     0.000000     0.000000     0.000000
   41     1.000000   120.000000     0.577350     0.577350    -0.577350     0.000000     0.000000     0.000000
   42    -1.000000   120.000000     0.577350     0.577350    -0.577350     0.000000     0.000000     0.000000
   43     1.000000   180.000000     0.000000    -0.707107     0.707107     0.000000     0.000000     0.000000
   44    -1.000000   180.000000     0.000000    -0.707107     0.707107     0.000000     0.000000     0.000000
   45     1.000000   180.000000     0.707107    -0.707107     0.000000     0.000000     0.000000     0.000000
   46    -1.000000   180.000000     0.707107    -0.707107     0.000000     0.000000     0.000000     0.000000
   47     1.000000   180.000000     0.707107     0.000000    -0.707107     0.000000     0.000000     0.000000
   48    -1.000000   180.000000     0.707107     0.000000    -0.707107     0.000000     0.000000     0.000000
 
 Subroutine IBZKPT returns following result:
 ===========================================
 
 Found      4 irreducible k-points:
 
 Following reciprocal coordinates:
            Coordinates               Weight
  0.000000  0.000000  0.000000      1.000000
  0.333333  0.000000  0.000000      6.000000
  0.333333  0.333333  0.000000     12.000000
  0.333333  0.333333  0.333333      8.000000
 
 Following cartesian coordinates:
            Coordinates               Weight
  0.000000  0.000000  0.000000      1.000000
  0.333333  0.000000  0.000000      6.000000
  0.333333  0.333333  0.000000     12.000000
  0.333333  0.333333  0.333333      8.000000
 


--------------------------------------------------------------------------------------------------------




 Dimension of arrays:
   k-points           NKPTS =      4   k-points in BZ     NKDIM =      4   number of bands    NBANDS=    492
   number of dos      NEDOS =    301   number of ions     NIONS =     64
   non local maximal  LDIM  =     11   non local SUM 2l+1 LMDIM =     41
   total plane-waves  NPLWV = 125000
   max r-space proj   IRMAX =   2224   max aug-charges    IRDMAX=   4900
   dimension x,y,z NGX =    50 NGY =   50 NGZ =   50
   dimension x,y,z NGXF=   100 NGYF=  100 NGZF=  100
   support grid    NGXF=   100 NGYF=  100 NGZF=  100
   ions per type =              32  32
   NGX,Y,Z   is equivalent  to a cutoff of   9.93,  9.93,  9.93 a.u.
   NGXF,Y,Z  is equivalent  to a cutoff of  19.85, 19.85, 19.85 a.u.

 SYSTEM =  NiO                                     
 POSCAR =  NiO                                     

 Startparameter for this run:
   NWRITE =      2    write-flag & timer
   PREC   = normal    normal or accurate (medium, high low for compatibility)
   ISTART =      0    job   : 0-new  1-cont  2-samecut
   ICHARG =      1    charge: 1-file 2-atom 10-const
   ISPIN  =      2    spin polarized calculation?
   LNONCOLLINEAR =      F non collinear calculations
   LSORBIT =      F    spin-orbit coupling
   INIWAV =      1    electr: 0-lowe 1-rand  2-diag
   LASPH  =      F    aspherical Exc in radial PAW
   METAGGA=      F    non-selfconsistent MetaGGA calc.

 Electronic Relaxation 1
   ENCUT  =  600.0 eV  44.10 Ry    6.64 a.u.  16.72 16.72 16.72*2*pi/ulx,y,z
   ENINI  =  600.0     initial cutoff
   ENAUG  = 1200.0 eV  augmentation charge cutoff
   NELM   =    100;   NELMIN=  2; NELMDL= -5     # of ELM steps 
   EDIFF  = 0.1E-05   stopping-criterion for ELM
   LREAL  =      T    real-space projection
   NLSPLINE    = F    spline interpolate recip. space projectors
   LCOMPAT=      F    compatible to vasp.4.4
   GGA_COMPAT  = T    GGA compatible to vasp.4.4-vasp.4.6
   LMAXPAW     = -100 max onsite density
   LMAXMIX     =    4 max onsite mixed and CHGCAR
   VOSKOWN=      0    Vosko Wilk Nusair interpolation
   ROPT   =   -0.00050  -0.00050
 Ionic relaxation
   EDIFFG = -.1E-03   stopping-criterion for IOM
   NSW    =      0    number of steps for IOM
   NBLOCK =      1;   KBLOCK =      1    inner block; outer block 
   IBRION =     -1    ionic relax: 0-MD 1-quasi-New 2-CG
   NFREE  =      1    steps in history (QN), initial steepest desc. (CG)
   ISIF   =      2    stress and relaxation
   IWAVPR =     10    prediction:  0-non 1-charg 2-wave 3-comb
   ISYM   =      2    0-nonsym 1-usesym 2-fastsym
   LCORR  =      T    Harris-Foulkes like correction to forces

   POTIM  = 0.2000    time-step for ionic-motion
   TEIN   =    0.0    initial temperature
   TEBEG  =    0.0;   TEEND  =   0.0 temperature during run
   SMASS  =  -3.00    Nose mass-parameter (am)
   estimated Nose-frequenzy (Omega)   =  0.10E-29 period in steps =****** mass=  -0.160E-26a.u.
   SCALEE = 1.0000    scale energy and forces
   NPACO  =    256;   APACO  = 16.0  distance and # of slots for P.C.
   PSTRESS=    0.0 pullay stress

  Mass of Ions in am
   POMASS =  58.69 16.00
  Ionic Valenz
   ZVAL   =  18.00  6.00
  Atomic Wigner-Seitz radii
   RWIGS  =  -1.00 -1.00
  virtual crystal weights 
   VCA    =   1.00  1.00
   NELECT =     768.0000    total number of electrons
   NUPDOWN=      -1.0000    fix difference up-down

 DOS related values:
   EMIN   =  10.00;   EMAX   =-10.00  energy-range for DOS
   EFERMI =   0.00
   ISMEAR =     0;   SIGMA  =   0.00  broadening in eV -4-tet -1-fermi 0-gaus

 Electronic relaxation 2 (details)
   IALGO  =     38    algorithm
   LDIAG  =      T    sub-space diagonalisation (order eigenvalues)
   LSUBROT=      F    optimize rotation matrix (better conditioning)
   TURBO    =      0    0=normal 1=particle mesh
   IRESTART =      0    0=no restart 2=restart with 2 vectors
   NREBOOT  =      0    no. of reboots
   NMIN     =      0    reboot dimension
   EREF     =   0.00    reference energy to select bands
   IMIX   =      4    mixing-type and parameters
     AMIX     =   0.40;   BMIX     =  1.00
     AMIX_MAG =   1.60;   BMIX_MAG =  1.00
     AMIN     =   0.10
     WC   =   100.;   INIMIX=   1;  MIXPRE=   1;  MAXMIX= -45

 Intra band minimization:
   WEIMIN = 0.0000     energy-eigenvalue tresh-hold
   EBREAK =  0.51E-09  absolut break condition
   DEPER  =   0.30     relativ break condition  

   TIME   =   0.40     timestep for ELM

  volume/ion in A,a.u.               =       9.17        61.90
  Fermi-wavevector in a.u.,A,eV,Ry     =   1.790491  3.383538 43.618369  3.205860
  Thomas-Fermi vector in A             =   2.853251
 
 Write flags
   LWAVE        =      T    write WAVECAR
   LDOWNSAMPLE  =      F    k-point downsampling of WAVECAR
   LCHARG       =      T    write CHGCAR
   LVTOT        =      F    write LOCPOT, total local potential
   LVHAR        =      F    write LOCPOT, Hartree potential only
   LELF         =      F    write electronic localiz. function (ELF)
   LORBIT       =     11    0 simple, 1 ext, 2 COOP (PROOUT), +10 PAW based schemes


 Dipole corrections
   LMONO  =      F    monopole corrections only (constant potential shift)
   LDIPOL =      F    correct potential (dipole corrections)
   IDIPOL =      0    1-x, 2-y, 3-z, 4-all directions 
   EPSILON=  1.0000000 bulk dielectric constant

 Exchange correlation treatment:
   GGA     =    --    GGA type
   LEXCH   =     8    internal setting for exchange type
   VOSKOWN=      0    Vosko Wilk Nusair interpolation
   LHFCALC =     F    Hartree Fock is set to
   LHFONE  =     F    Hartree Fock one center treatment
   AEXX    =    0.0000 exact exchange contribution

 Linear response parameters
   LEPSILON=     F    determine dielectric tensor
   LRPA    =     F    only Hartree local field effects (RPA)
   LNABLA  =     F    use nabla operator in PAW spheres
   LVEL    =     F    velocity operator in full k-point grid
   LINTERFAST=   F  fast interpolation
   KINTER  =     0    interpolate to denser k-point grid
   CSHIFT  =0.1000    complex shift for real part using Kramers Kronig
   OMEGAMAX=  -1.0    maximum frequency
   DEG_THRESHOLD= 0.2000000E-02 threshold for treating states as degnerate
   RTIME   =   -0.100 relaxation time in fs
  (WPLASMAI=    0.000 imaginary part of plasma frequency in eV, 0.658/RTIME)
   DFIELD  = 0.0000000 0.0000000 0.0000000 field for delta impulse in time
 
 Orbital magnetization related:
   ORBITALMAG=     F  switch on orbital magnetization
   LCHIMAG   =     F  perturbation theory with respect to B field
   DQ        =  0.001000  dq finite difference perturbation B field
   LLRAUG    =     F  two centre corrections for induced B field



--------------------------------------------------------------------------------------------------------


 Static calculation
 charge density and potential will be updated during run
 spin polarized calculation
 Variant of blocked Davidson
 Davidson routine will perform the subspace rotation
 perform sub-space diagonalisation
    after iterative eigenvector-optimisation
 modified Broyden-mixing scheme, WC =      100.0
 initial mixing is a Kerker type mixing with AMIX =  0.4000 and BMIX =      1.0000
 Hartree-type preconditioning will be used
 using additional bands          108
 real space projection scheme for non local part
 use partial core corrections
 calculate Harris-corrections to forces 
   (improved forces if not selfconsistent)
 use gradient corrections 
 use of overlap-Matrix (Vanderbilt PP)
 Gauss-broadening in eV      SIGMA  =   0.00


--------------------------------------------------------------------------------------------------------


  energy-cutoff  :      600.00
  volume of cell :      587.04
      direct lattice vectors                 reciprocal lattice vectors
     8.373165000  0.000000000  0.000000000     0.119429153  0.000000000  0.000000000
     0.000000000  8.373165000  0.000000000     0.000000000  0.119429153  0.000000000
     0.000000000  0.000000000  8.373165000     0.000000000  0.000000000  0.119429153

  length of vectors
     8.373165000  8.373165000  8.373165000     0.119429153  0.119429153  0.119429153


 
 k-points in units of 2pi/SCALE and weight: k-points                                
   0.00000000  0.00000000  0.00000000       0.037
   0.33333333  0.00000000  0.00000000       0.222
   0.33333333  0.33333333  0.00000000       0.444
   0.33333333  0.33333333  0.33333333       0.296
 
 k-points in reciprocal lattice and weights: k-points                                
   0.00000000  0.00000000  0.00000000       0.037
   0.33333333  0.00000000  0.00000000       0.222
   0.33333333  0.33333333  0.00000000       0.444
   0.33333333  0.33333333  0.33333333       0.296
 
 position of ions in fractional coordinates (direct lattice) 
   0.00000000  0.00000000  0.00000000
   0.00000000  0.00000000  0.50000000
   0.00000000  0.50000000  0.00000000
   0.00000000  0.50000000  0.50000000
   0.50000000  0.00000000  0.00000000
   0.50000000  0.00000000  0.50000000
   0.50000000  0.50000000  0.00000000
   0.50000000  0.50000000  0.50000000
   0.00000000  0.25000000  0.25000000
   0.00000000  0.25000000  0.75000000
   0.00000000  0.75000000  0.25000000
   0.00000000  0.75000000  0.75000000
   0.50000000  0.25000000  0.25000000
   0.50000000  0.25000000  0.75000000
   0.50000000  0.75000000  0.25000000
   0.50000000  0.75000000  0.75000000
   0.25000000  0.00000000  0.25000000
   0.25000000  0.00000000  0.75000000
   0.25000000  0.50000000  0.25000000
   0.25000000  0.50000000  0.75000000
   0.75000000  0.00000000  0.25000000
   0.75000000  0.00000000  0.75000000
   0.75000000  0.50000000  0.25000000
   0.75000000  0.50000000  0.75000000
   0.25000000  0.25000000  0.00000000
   0.25000000  0.25000000  0.50000000
   0.25000000  0.75000000  0.00000000
   0.25000000  0.75000000  0.50000000
   0.75000000  0.25000000  0.00000000
   0.75000000  0.25000000  0.50000000
   0.75000000  0.75000000  0.00000000
   0.75000000  0.75000000  0.50000000
   0.25000000  0.00000000  0.00000000
   0.25000000  0.00000000  0.50000000
   0.25000000  0.50000000  0.00000000
   0.25000000  0.50000000  0.50000000
   0.75000000  0.00000000  0.00000000
   0.75000000  0.00000000  0.50000000
   0.75000000  0.50000000  0.00000000
   0.75000000  0.50000000  0.50000000
   0.25000000  0.25000000  0.25000000
   0.25000000  0.25000000  0.75000000
   0.25000000  0.75000000  0.25000000
   0.25000000  0.75000000  0.75000000
   0.75000000  0.25000000  0.25000000
   0.75000000  0.25000000  0.75000000
   0.75000000  0.75000000  0.25000000
   0.75000000  0.75000000  0.75000000
   0.00000000  0.00000000  0.25000000
   0.00000000  0.00000000  0.75000000
   0.00000000  0.50000000  0.25000000
   0.00000000  0.50000000  0.75000000
   0.50000000  0.00000000  0.25000000
   0.50000000  0.00000000  0.75000000
   0.50000000  0.50000000  0.25000000
   0.50000000  0.50000000  0.75000000
   0.00000000  0.25000000  0.00000000
   0.00000000  0.25000000  0.50000000
   0.00000000  0.75000000  0.00000000
   0.00000000  0.75000000  0.50000000
   0.50000000  0.25000000  0.00000000
   0.50000000  0.25000000  0.50000000
   0.50000000  0.75000000  0.00000000
   0.50000000  0.75000000  0.50000000
 
 position of ions in cartesian coordinates  (Angst):
   0.00000000  0.00000000  0.00000000
   0.00000000  0.00000000  4.18658250
   0.00000000  4.18658250  0.00000000
   0.00000000  4.18658250  4.18658250
   4.18658250  0.00000000  0.00000000
   4.18658250  0.00000000  4.18658250
   4.18658250  4.18658250  0.00000000
   4.18658250  4.18658250  4.18658250
   0.00000000  2.09329125  2.09329125
   0.00000000  2.09329125  6.27987375
   0.00000000  6.27987375  2.09329125
   0.00000000  6.27987375  6.27987375
   4.18658250  2.09329125  2.09329125
   4.18658250  2.09329125  6.27987375
   4.18658250  6.27987375  2.09329125
   4.18658250  6.27987375  6.27987375
   2.09329125  0.00000000  2.09329125
   2.09329125  0.00000000  6.27987375
   2.09329125  4.18658250  2.09329125
   2.09329125  4.18658250  6.27987375
   6.27987375  0.00000000  2.09329125
   6.27987375  0.00000000  6.27987375
   6.27987375  4.18658250  2.09329125
   6.27987375  4.18658250  6.27987375
   2.09329125  2.09329125  0.00000000
   2.09329125  2.09329125  4.18658250
   2.09329125  6.27987375  0.00000000
   2.09329125  6.27987375  4.18658250
   6.27987375  2.09329125  0.00000000
   6.27987375  2.09329125  4.18658250
   6.27987375  6.27987375  0.00000000
   6.27987375  6.27987375  4.18658250
   2.09329125  0.00000000  0.00000000
   2.09329125  0.00000000  4.18658250
   2.09329125  4.18658250  0.00000000
   2.09329125  4.18658250  4.18658250
   6.27987375  0.00000000  0.00000000
   6.27987375  0.00000000  4.18658250
   6.27987375  4.18658250  0.00000000
   6.27987375  4.18658250  4.18658250
   2.09329125  2.09329125  2.09329125
   2.09329125  2.09329125  6.27987375
   2.09329125  6.27987375  2.09329125
   2.09329125  6.27987375  6.27987375
   6.27987375  2.09329125  2.09329125
   6.27987375  2.09329125  6.27987375
   6.27987375  6.27987375  2.09329125
   6.27987375  6.27987375  6.27987375
   0.00000000  0.00000000  2.09329125
   0.00000000  0.00000000  6.27987375
   0.00000000  4.18658250  2.09329125
   0.00000000  4.18658250  6.27987375
   4.18658250  0.00000000  2.09329125
   4.18658250  0.00000000  6.27987375
   4.18658250  4.18658250  2.09329125
   4.18658250  4.18658250  6.27987375
   0.00000000  2.09329125  0.00000000
   0.00000000  2.09329125  4.18658250
   0.00000000  6.27987375  0.00000000
   0.00000000  6.27987375  4.18658250
   4.18658250  2.09329125  0.00000000
   4.18658250  2.09329125  4.18658250
   4.18658250  6.27987375  0.00000000
   4.18658250  6.27987375  4.18658250
 


--------------------------------------------------------------------------------------------------------


 k-point  1 :   0.0000 0.0000 0.0000  plane waves:   19549
 k-point  2 :   0.3333 0.0000 0.0000  plane waves:   19594
 k-point  3 :   0.3333 0.3333 0.0000  plane waves:   19586
 k-point  4 :   0.3333 0.3333 0.3333  plane waves:   19603

 maximum and minimum number of plane-waves per node :     19603    19549

 maximum number of plane-waves:     19603
 maximum index in each direction: 
   IXMAX=   16   IYMAX=   16   IZMAX=   16
   IXMIN=  -17   IYMIN=  -17   IZMIN=  -17


 serial   3D FFT for wavefunctions
 parallel 3D FFT for charge:
    minimum data exchange during FFTs selected (reduces bandwidth)


 total amount of memory used by VASP MPI-rank0  1566004. kBytes
=======================================================================

   base      :      30000. kBytes
   nonlr-proj:      38118. kBytes
   fftplans  :      34720. kBytes
   grid      :      91360. kBytes
   one-center:      10328. kBytes
   wavefun   :    1361478. kBytes
 
     INWAV:  cpu time    0.0001: real time    0.0001
 Broyden mixing: mesh for mixing (old mesh)
   NGX = 33   NGY = 33   NGZ = 33
  (NGX  =100   NGY  =100   NGZ  =100)
  gives a total of  35937 points

 initial charge density was supplied:
 number of electron     768.0003318 magnetization      64.0000000
 keeping initial charge density in first step


--------------------------------------------------------------------------------------------------------


 Maximum index for non-local projection operator         2176
 Maximum index for augmentation-charges         4553 (set IRDMAX)


--------------------------------------------------------------------------------------------------------


 First call to EWALD:  gamma=   0.212
 Maximum number of real-space cells 3x 3x 3
 Maximum number of reciprocal cells 3x 3x 3

    FEWALD:  cpu time    0.0121: real time    0.0121


----------------------------------------- Iteration    1(   1)  ---------------------------------------


    POTLOK:  cpu time    0.9551: real time    0.9546
    SETDIJ:  cpu time    0.3958: real time    0.3957
     EDDAV:  cpu time   11.2153: real time   11.2189
       DOS:  cpu time    0.0055: real time    0.0055
    --------------------------------------------
      LOOP:  cpu time   12.5739: real time   12.5770

 eigenvalue-minimisations  :  9232
 total energy-change (2. order) : 0.3234347E+05  (-0.2224414E+05)
 number of electron     768.0003318 magnetization      64.0000000
 augmentation part      768.0003318 magnetization      64.0000000

 Free energy of the ion-electron system (eV)
  ---------------------------------------------------
  alpha Z        PSCENC =      5405.26752916
  Ewald energy   TEWEN  =   -103786.92559499
  -Hartree energ DENC   =    -47246.87488285
  -exchange      EXHF   =         0.00000000
  -V(xc)+E(xc)   XCENC  =      5119.55607101
  PAW double counting   =    142077.22770908  -148126.97835835
  entropy T*S    EENTRO =        -0.00010206
  eigenvalues    EBANDS =     16496.57056950
  atomic energy  EATOM  =    162405.62235658
  Solvation  Ediel_sol  =         0.00000000
  ---------------------------------------------------
  free energy    TOTEN  =     32343.46529706 eV

  energy without entropy =    32343.46539912  energy(sigma->0) =    32343.46534809


--------------------------------------------------------------------------------------------------------




----------------------------------------- Iteration    1(   2)  ---------------------------------------


     EDDAV:  cpu time   11.5061: real time   11.5127
       DOS:  cpu time    0.0064: real time    0.0064
    --------------------------------------------
      LOOP:  cpu time   11.5129: real time   11.5196

 eigenvalue-minimisations  :  9472
 total energy-change (2. order) :-0.2003172E+05  (-0.1762029E+05)
 number of electron     768.0003318 magnetization      64.0000000
 augmentation part      768.0003318 magnetization      64.0000000

 Free energy of the ion-electron system (eV)
  ---------------------------------------------------
  alpha Z        PSCENC =      5405.26752916
  Ewald energy   TEWEN  =   -103786.92559499
  -Hartree energ DENC   =    -47246.87488285
  -exchange      EXHF   =         0.00000000
  -V(xc)+E(xc)   XCENC  =      5119.55607101
  PAW double counting   =    142077.22770908  -148126.97835835
  entropy T*S    EENTRO =        -0.00005713
  eigenvalues    EBANDS =     -3535.14503857
  atomic energy  EATOM  =    162405.62235658
  Solvation  Ediel_sol  =         0.00000000
  ---------------------------------------------------
  free energy    TOTEN  =     12311.74973392 eV

  energy without entropy =    12311.74979106  energy(sigma->0) =    12311.74976249


--------------------------------------------------------------------------------------------------------




----------------------------------------- Iteration    1(   3)  ---------------------------------------


     EDDAV:  cpu time   12.9791: real time   12.9803
       DOS:  cpu time    0.0059: real time    0.0059
    --------------------------------------------
      LOOP:  cpu time   12.9853: real time   12.9865

 eigenvalue-minimisations  : 11440
 total energy-change (2. order) :-0.9109411E+04  (-0.8544530E+04)
 number of electron     768.0003318 magnetization      64.0000000
 augmentation part      768.0003318 magnetization      64.0000000

 Free energy of the ion-electron system (eV)
  ---------------------------------------------------
  alpha Z        PSCENC =      5405.26752916
  Ewald energy   TEWEN  =   -103786.92559499
  -Hartree energ DENC   =    -47246.87488285
  -exchange      EXHF   =         0.00000000
  -V(xc)+E(xc)   XCENC  =      5119.55607101
  PAW double counting   =    142077.22770908  -148126.97835835
  entropy T*S    EENTRO =        -0.00005713
  eigenvalues    EBANDS =    -12644.55584806
  atomic energy  EATOM  =    162405.62235658
  Solvation  Ediel_sol  =         0.00000000
  ---------------------------------------------------
  free energy    TOTEN  =      3202.33892443 eV

  energy without entropy =     3202.33898156  energy(sigma->0) =     3202.33895300


--------------------------------------------------------------------------------------------------------




----------------------------------------- Iteration    1(   4)  ---------------------------------------


     EDDAV:  cpu time   15.6717: real time   15.6783
       DOS:  cpu time    0.0062: real time    0.0062
    --------------------------------------------
      LOOP:  cpu time   15.6783: real time   15.6848

 eigenvalue-minimisations  : 14880
 total energy-change (2. order) :-0.2719280E+04  (-0.2524938E+04)
 number of electron     768.0003318 magnetization      64.0000000
 augmentation part      768.0003318 magnetization      64.0000000

 Free energy of the ion-electron system (eV)
  ---------------------------------------------------
  alpha Z        PSCENC =      5405.26752916
  Ewald energy   TEWEN  =   -103786.92559499
  -Hartree energ DENC   =    -47246.87488285
  -exchange      EXHF   =         0.00000000
  -V(xc)+E(xc)   XCENC  =      5119.55607101
  PAW double counting   =    142077.22770908  -148126.97835835
  entropy T*S    EENTRO =        -0.00011427
  eigenvalues    EBANDS =    -15363.83554660
  atomic energy  EATOM  =    162405.62235658
  Solvation  Ediel_sol  =         0.00000000
  ---------------------------------------------------
  free energy    TOTEN  =       483.05916875 eV

  energy without entropy =      483.05928302  energy(sigma->0) =      483.05922589


--------------------------------------------------------------------------------------------------------




----------------------------------------- Iteration    1(   5)  ---------------------------------------


     EDDAV:  cpu time   15.9392: real time   15.9443
       DOS:  cpu time    0.0060: real time    0.0060
    CHARGE:  cpu time    3.1493: real time    3.1491
    MIXING:  cpu time    0.0208: real time    0.0208
    --------------------------------------------
      LOOP:  cpu time   19.1158: real time   19.1207

 eigenvalue-minimisations  : 15264
 total energy-change (2. order) :-0.6209539E+03  (-0.5445028E+03)
 number of electron     768.0005128 magnetization      41.6545763
 augmentation part      320.9899524 magnetization      34.6534324

 Broyden mixing:
  rms(total) = 0.10671E+02    rms(broyden)= 0.10670E+02
  rms(prec ) = 0.12286E+02
  weight for this iteration     100.00

 Free energy of the ion-electron system (eV)
  ---------------------------------------------------
  alpha Z        PSCENC =      5405.26752916
  Ewald energy   TEWEN  =   -103786.92559499
  -Hartree energ DENC   =    -47246.87488285
  -exchange      EXHF   =         0.00000000
  -V(xc)+E(xc)   XCENC  =      5119.55607101
  PAW double counting   =    142077.22770908  -148126.97835835
  entropy T*S    EENTRO =        -0.00004363
  eigenvalues    EBANDS =    -15984.78953087
  atomic energy  EATOM  =    162405.62235658
  Solvation  Ediel_sol  =         0.00000000
  ---------------------------------------------------
  free energy    TOTEN  =      -137.89474487 eV

  energy without entropy =     -137.89470125  energy(sigma->0) =     -137.89472306


--------------------------------------------------------------------------------------------------------




----------------------------------------- Iteration    1(   6)  ---------------------------------------


    POTLOK:  cpu time    0.9641: real time    0.9638
    SETDIJ:  cpu time    0.4092: real time    0.4090
     EDDAV:  cpu time   15.6696: real time   15.6756
       DOS:  cpu time    0.0060: real time    0.0060
    CHARGE:  cpu time    3.1400: real time    3.1397
    MIXING:  cpu time    0.0242: real time    0.0242
    --------------------------------------------
      LOOP:  cpu time   20.2138: real time   20.2190

 eigenvalue-minimisations  : 14872
 total energy-change (2. order) :-0.2590287E+03  (-0.2521990E+03)
 number of electron     768.0004252 magnetization      38.4956646
 augmentation part      295.5171279 magnetization      24.9802662

 Broyden mixing:
  rms(total) = 0.77167E+01    rms(broyden)= 0.77143E+01
  rms(prec ) = 0.10016E+02
  weight for this iteration     100.00

 eigenvalues of (default mixing * dielectric matrix)
  average eigenvalue GAMMA=   0.6102
  0.6102

 Free energy of the ion-electron system (eV)
  ---------------------------------------------------
  alpha Z        PSCENC =      5405.26752916
  Ewald energy   TEWEN  =   -103786.92559499
  -Hartree energ DENC   =    -48645.92082717
  -exchange      EXHF   =         0.00000000
  -V(xc)+E(xc)   XCENC  =      5137.07818872
  PAW double counting   =    149655.49471763  -156034.91836806
  entropy T*S    EENTRO =        -0.00007626
  eigenvalues    EBANDS =    -14532.62134047
  atomic energy  EATOM  =    162405.62235658
  Solvation  Ediel_sol  =         0.00000000
  ---------------------------------------------------
  free energy    TOTEN  =      -396.92341488 eV

  energy without entropy =     -396.92333861  energy(sigma->0) =     -396.92337674


--------------------------------------------------------------------------------------------------------




----------------------------------------- Iteration    1(   7)  ---------------------------------------


    POTLOK:  cpu time    0.9584: real time    0.9581
    SETDIJ:  cpu time    0.4073: real time    0.4071
     EDDAV:  cpu time   14.3799: real time   14.3840
       DOS:  cpu time    0.0061: real time    0.0061
    CHARGE:  cpu time    3.1475: real time    3.1471
    MIXING:  cpu time    0.0264: real time    0.0264
    --------------------------------------------
      LOOP:  cpu time   18.9261: real time   18.9293

 eigenvalue-minimisations  : 13320
 total energy-change (2. order) : 0.4297405E+01  (-0.1021383E+03)
 number of electron     768.0004326 magnetization      40.4086501
 augmentation part      308.5939853 magnetization      24.9547624

 Broyden mixing:
  rms(total) = 0.50115E+01    rms(broyden)= 0.50100E+01
  rms(prec ) = 0.60031E+01
  weight for this iteration     100.00

 eigenvalues of (default mixing * dielectric matrix)
  average eigenvalue GAMMA=   0.5665
  0.5665  0.5665

 Free energy of the ion-electron system (eV)
  ---------------------------------------------------
  alpha Z        PSCENC =      5405.26752916
  Ewald energy   TEWEN  =   -103786.92559499
  -Hartree energ DENC   =    -47643.23983220
  -exchange      EXHF   =         0.00000000
  -V(xc)+E(xc)   XCENC  =      5112.66914581
  PAW double counting   =    147256.05346831  -153364.77620573
  entropy T*S    EENTRO =        -0.00005255
  eigenvalues    EBANDS =    -15777.29682433
  atomic energy  EATOM  =    162405.62235658
  Solvation  Ediel_sol  =         0.00000000
  ---------------------------------------------------
  free energy    TOTEN  =      -392.62600994 eV

  energy without entropy =     -392.62595739  energy(sigma->0) =     -392.62598366


--------------------------------------------------------------------------------------------------------




----------------------------------------- Iteration    1(   8)  ---------------------------------------


    POTLOK:  cpu time    0.9497: real time    0.9494
    SETDIJ:  cpu time    0.4071: real time    0.4071
     EDDAV:  cpu time   15.4357: real time   15.4380
       DOS:  cpu time    0.0063: real time    0.0063
    CHARGE:  cpu time    3.1429: real time    3.1422
    MIXING:  cpu time    0.0317: real time    0.0317
    --------------------------------------------
      LOOP:  cpu time   19.9740: real time   19.9753

 eigenvalue-minimisations  : 14752
 total energy-change (2. order) :-0.1109939E+02  (-0.2181095E+02)
 number of electron     768.0004304 magnetization      44.0178440
 augmentation part      307.8492824 magnetization      26.8355100

 Broyden mixing:
  rms(total) = 0.42923E+01    rms(broyden)= 0.42916E+01
  rms(prec ) = 0.51367E+01
  weight for this iteration     100.00

 eigenvalues of (default mixing * dielectric matrix)
  average eigenvalue GAMMA=   0.3891
  0.5622  0.5622  0.0427

 Free energy of the ion-electron system (eV)
  ---------------------------------------------------
  alpha Z        PSCENC =      5405.26752916
  Ewald energy   TEWEN  =   -103786.92559499
  -Hartree energ DENC   =    -47698.54755542
  -exchange      EXHF   =         0.00000000
  -V(xc)+E(xc)   XCENC  =      5121.23161921
  PAW double counting   =    145919.10587173  -152064.03101692
  entropy T*S    EENTRO =        -0.00033560
  eigenvalues    EBANDS =    -15705.44827045
  atomic energy  EATOM  =    162405.62235658
  Solvation  Ediel_sol  =         0.00000000
  ---------------------------------------------------
  free energy    TOTEN  =      -403.72539670 eV

  energy without entropy =     -403.72506110  energy(sigma->0) =     -403.72522890


--------------------------------------------------------------------------------------------------------




----------------------------------------- Iteration    1(   9)  ---------------------------------------


    POTLOK:  cpu time    0.9614: real time    0.9610
    SETDIJ:  cpu time    0.4071: real time    0.4070
     EDDAV:  cpu time   15.5241: real time   15.5251
       DOS:  cpu time    0.0063: real time    0.0062
    CHARGE:  cpu time    3.1261: real time    3.1254
    MIXING:  cpu time    0.0324: real time    0.0324
    --------------------------------------------
      LOOP:  cpu time   20.0579: real time   20.0577

 eigenvalue-minimisations  : 14584
 total energy-change (2. order) : 0.3673207E+01  (-0.3163794E+01)
 number of electron     768.0004311 magnetization      54.7166689
 augmentation part      307.8875135 magnetization      36.2632513

 Broyden mixing:
  rms(total) = 0.34790E+01    rms(broyden)= 0.34787E+01
  rms(prec ) = 0.41038E+01
  weight for this iteration     100.00

 eigenvalues of (default mixing * dielectric matrix)
  average eigenvalue GAMMA=   0.8173
  1.0903  1.0903  0.5443  0.5443

 Free energy of the ion-electron system (eV)
  ---------------------------------------------------
  alpha Z        PSCENC =      5405.26752916
  Ewald energy   TEWEN  =   -103786.92559499
  -Hartree energ DENC   =    -47735.20847880
  -exchange      EXHF   =         0.00000000
  -V(xc)+E(xc)   XCENC  =      5127.79962984
  PAW double counting   =    145013.92214169  -151149.08525816
  entropy T*S    EENTRO =        -0.00037373
  eigenvalues    EBANDS =    -15681.44414135
  atomic energy  EATOM  =    162405.62235658
  Solvation  Ediel_sol  =         0.00000000
  ---------------------------------------------------
  free energy    TOTEN  =      -400.05218977 eV

  energy without entropy =     -400.05181604  energy(sigma->0) =     -400.05200290


--------------------------------------------------------------------------------------------------------




----------------------------------------- Iteration    1(  10)  ---------------------------------------


    POTLOK:  cpu time    0.9468: real time    0.9463
    SETDIJ:  cpu time    0.4080: real time    0.4079
     EDDAV:  cpu time   16.1224: real time   16.1229
       DOS:  cpu time    0.0056: real time    0.0056
    CHARGE:  cpu time    3.1316: real time    3.1309
    MIXING:  cpu time    0.0397: real time    0.0397
    --------------------------------------------
      LOOP:  cpu time   20.6546: real time   20.6540

 eigenvalue-minimisations  : 15560
 total energy-change (2. order) : 0.6954362E+01  (-0.1422028E+01)
 number of electron     768.0004332 magnetization      56.0411102
 augmentation part      308.4141728 magnetization      37.4141742

 Broyden mixing:
  rms(total) = 0.12525E+01    rms(broyden)= 0.12522E+01
  rms(prec ) = 0.14217E+01
  weight for this iteration     100.00

 eigenvalues of (default mixing * dielectric matrix)
  average eigenvalue GAMMA=   0.7392
  1.1483  1.1483  0.6316  0.3839  0.3839

 Free energy of the ion-electron system (eV)
  ---------------------------------------------------
  alpha Z        PSCENC =      5405.26752916
  Ewald energy   TEWEN  =   -103786.92559499
  -Hartree energ DENC   =    -47767.71102838
  -exchange      EXHF   =         0.00000000
  -V(xc)+E(xc)   XCENC  =      5140.01019269
  PAW double counting   =    142614.27548907  -148717.29476261
  entropy T*S    EENTRO =        -0.00013042
  eigenvalues    EBANDS =    -15686.34187850
  atomic energy  EATOM  =    162405.62235658
  Solvation  Ediel_sol  =         0.00000000
  ---------------------------------------------------
  free energy    TOTEN  =      -393.09782739 eV

  energy without entropy =     -393.09769698  energy(sigma->0) =     -393.09776219


--------------------------------------------------------------------------------------------------------




----------------------------------------- Iteration    1(  11)  ---------------------------------------


    POTLOK:  cpu time    0.9571: real time    0.9567
    SETDIJ:  cpu time    0.4067: real time    0.4066
     EDDAV:  cpu time   15.5476: real time   15.5449
       DOS:  cpu time    0.0050: real time    0.0050
    CHARGE:  cpu time    3.1411: real time    3.1404
    MIXING:  cpu time    0.0394: real time    0.0395
    --------------------------------------------
      LOOP:  cpu time   20.0976: real time   20.0937

 eigenvalue-minimisations  : 14560
 total energy-change (2. order) : 0.2684159E+00  (-0.4113512E+00)
 number of electron     768.0004356 magnetization      55.2664592
 augmentation part      308.9396249 magnetization      36.6266184

 Broyden mixing:
  rms(total) = 0.10702E+01    rms(broyden)= 0.10702E+01
  rms(prec ) = 0.11027E+01
  weight for this iteration     100.00

 eigenvalues of (default mixing * dielectric matrix)
  average eigenvalue GAMMA=   0.7426
  1.1392  1.1392  0.6640  0.4463  0.5336  0.5336

 Free energy of the ion-electron system (eV)
  ---------------------------------------------------
  alpha Z        PSCENC =      5405.26752916
  Ewald energy   TEWEN  =   -103786.92559499
  -Hartree energ DENC   =    -47762.88201626
  -exchange      EXHF   =         0.00000000
  -V(xc)+E(xc)   XCENC  =      5141.53093410
  PAW double counting   =    142122.91417769  -148217.04351353
  entropy T*S    EENTRO =        -0.00012939
  eigenvalues    EBANDS =    -15701.31315488
  atomic energy  EATOM  =    162405.62235658
  Solvation  Ediel_sol  =         0.00000000
  ---------------------------------------------------
  free energy    TOTEN  =      -392.82941152 eV

  energy without entropy =     -392.82928213  energy(sigma->0) =     -392.82934683


--------------------------------------------------------------------------------------------------------




----------------------------------------- Iteration    1(  12)  ---------------------------------------


    POTLOK:  cpu time    0.9491: real time    0.9487
    SETDIJ:  cpu time    0.4080: real time    0.4079
     EDDAV:  cpu time   14.9352: real time   14.9393
       DOS:  cpu time    0.0058: real time    0.0058
    CHARGE:  cpu time    3.1329: real time    3.1326
    MIXING:  cpu time    0.0486: real time    0.0485
    --------------------------------------------
      LOOP:  cpu time   19.4801: real time   19.4833

 eigenvalue-minimisations  : 13984
 total energy-change (2. order) :-0.1651033E+00  (-0.7174984E-01)
 number of electron     768.0004357 magnetization      55.0910953
 augmentation part      308.7596822 magnetization      36.2623617

 Broyden mixing:
  rms(total) = 0.83197E+00    rms(broyden)= 0.83196E+00
  rms(prec ) = 0.87115E+00
  weight for this iteration     100.00

 eigenvalues of (default mixing * dielectric matrix)
  average eigenvalue GAMMA=   0.8206
  1.1810  1.1810  0.8792  0.8792  0.6266  0.5250  0.4721

 Free energy of the ion-electron system (eV)
  ---------------------------------------------------
  alpha Z        PSCENC =      5405.26752916
  Ewald energy   TEWEN  =   -103786.92559499
  -Hartree energ DENC   =    -47777.16577795
  -exchange      EXHF   =         0.00000000
  -V(xc)+E(xc)   XCENC  =      5141.46869167
  PAW double counting   =    141983.61186681  -148071.89488283
  entropy T*S    EENTRO =        -0.00012939
  eigenvalues    EBANDS =    -15692.97857389
  atomic energy  EATOM  =    162405.62235658
  Solvation  Ediel_sol  =         0.00000000
  ---------------------------------------------------
  free energy    TOTEN  =      -392.99451483 eV

  energy without entropy =     -392.99438544  energy(sigma->0) =     -392.99445014


--------------------------------------------------------------------------------------------------------




----------------------------------------- Iteration    1(  13)  ---------------------------------------


    POTLOK:  cpu time    0.9644: real time    0.9642
    SETDIJ:  cpu time    0.4076: real time    0.4075
     EDDAV:  cpu time   14.7740: real time   14.7755
       DOS:  cpu time    0.0059: real time    0.0059
    CHARGE:  cpu time    3.1228: real time    3.1227
    MIXING:  cpu time    0.0481: real time    0.0480
    --------------------------------------------
      LOOP:  cpu time   19.3233: real time   19.3243

 eigenvalue-minimisations  : 13760
 total energy-change (2. order) : 0.4293910E-02  (-0.1537265E-01)
 number of electron     768.0004363 magnetization      55.9086742
 augmentation part      308.9367893 magnetization      37.0222546

 Broyden mixing:
  rms(total) = 0.65775E+00    rms(broyden)= 0.65775E+00
  rms(prec ) = 0.69321E+00
  weight for this iteration     100.00

 eigenvalues of (default mixing * dielectric matrix)
  average eigenvalue GAMMA=   0.9696
  1.5576  1.5576  1.0730  1.0730  0.6905  0.6905  0.6631  0.4512

 Free energy of the ion-electron system (eV)
  ---------------------------------------------------
  alpha Z        PSCENC =      5405.26752916
  Ewald energy   TEWEN  =   -103786.92559499
  -Hartree energ DENC   =    -47771.77096705
  -exchange      EXHF   =         0.00000000
  -V(xc)+E(xc)   XCENC  =      5141.12635708
  PAW double counting   =    141769.21212917  -147848.57996025
  entropy T*S    EENTRO =        -0.00012939
  eigenvalues    EBANDS =    -15706.94194124
  atomic energy  EATOM  =    162405.62235658
  Solvation  Ediel_sol  =         0.00000000
  ---------------------------------------------------
  free energy    TOTEN  =      -392.99022092 eV

  energy without entropy =     -392.99009153  energy(sigma->0) =     -392.99015623


--------------------------------------------------------------------------------------------------------




----------------------------------------- Iteration    1(  14)  ---------------------------------------


    POTLOK:  cpu time    0.9499: real time    0.9496
    SETDIJ:  cpu time    0.4067: real time    0.4068
     EDDAV:  cpu time   14.6345: real time   14.6455
       DOS:  cpu time    0.0059: real time    0.0059
    CHARGE:  cpu time    3.1425: real time    3.1423
    MIXING:  cpu time    0.0526: real time    0.0526
    --------------------------------------------
      LOOP:  cpu time   19.1928: real time   19.2032

 eigenvalue-minimisations  : 13392
 total energy-change (2. order) : 0.3830557E-01  (-0.1788785E-01)
 number of electron     768.0004393 magnetization      53.9427860
 augmentation part      309.5276815 magnetization      36.4495216

 Broyden mixing:
  rms(total) = 0.67059E+00    rms(broyden)= 0.67006E+00
  rms(prec ) = 0.68789E+00
  weight for this iteration     100.00

 eigenvalues of (default mixing * dielectric matrix)
  average eigenvalue GAMMA=   0.9248
  1.6565  1.6565  1.1027  1.1027  0.6386  0.6386  0.6083  0.5100  0.4091

 Free energy of the ion-electron system (eV)
  ---------------------------------------------------
  alpha Z        PSCENC =      5405.26752916
  Ewald energy   TEWEN  =   -103786.92559499
  -Hartree energ DENC   =    -47759.72371199
  -exchange      EXHF   =         0.00000000
  -V(xc)+E(xc)   XCENC  =      5141.57486455
  PAW double counting   =    140988.38837623  -147051.43117680
  entropy T*S    EENTRO =        -0.00029893
  eigenvalues    EBANDS =    -15735.72425916
  atomic energy  EATOM  =    162405.62235658
  Solvation  Ediel_sol  =         0.00000000
  ---------------------------------------------------
  free energy    TOTEN  =      -392.95191534 eV

  energy without entropy =     -392.95161641  energy(sigma->0) =     -392.95176588


--------------------------------------------------------------------------------------------------------




----------------------------------------- Iteration    1(  15)  ---------------------------------------


    POTLOK:  cpu time    0.9479: real time    0.9476
    SETDIJ:  cpu time    0.4062: real time    0.4061
     EDDAV:  cpu time   15.1463: real time   15.1476
       DOS:  cpu time    0.0062: real time    0.0062
    CHARGE:  cpu time    3.1474: real time    3.1470
    MIXING:  cpu time    0.0640: real time    0.0640
    --------------------------------------------
      LOOP:  cpu time   19.7186: real time   19.7191

 eigenvalue-minimisations  : 14256
 total energy-change (2. order) :-0.1194401E+00  (-0.1470117E-01)
 number of electron     768.0004391 magnetization      52.7284131
 augmentation part      309.3552062 magnetization      35.3763028

 Broyden mixing:
  rms(total) = 0.38012E+00    rms(broyden)= 0.38001E+00
  rms(prec ) = 0.38088E+00
  weight for this iteration     100.00

 eigenvalues of (default mixing * dielectric matrix)
  average eigenvalue GAMMA=   0.9703
  1.8238  1.8238  1.1477  1.1477  0.6657  0.6657  0.6756  0.6756  0.6285  0.4490

 Free energy of the ion-electron system (eV)
  ---------------------------------------------------
  alpha Z        PSCENC =      5405.26752916
  Ewald energy   TEWEN  =   -103786.92559499
  -Hartree energ DENC   =    -47772.58736208
  -exchange      EXHF   =         0.00000000
  -V(xc)+E(xc)   XCENC  =      5140.60615679
  PAW double counting   =    141089.69147168  -147154.94026358
  entropy T*S    EENTRO =        -0.00023834
  eigenvalues    EBANDS =    -15719.80541070
  atomic energy  EATOM  =    162405.62235658
  Solvation  Ediel_sol  =         0.00000000
  ---------------------------------------------------
  free energy    TOTEN  =      -393.07135548 eV

  energy without entropy =     -393.07111714  energy(sigma->0) =     -393.07123631


--------------------------------------------------------------------------------------------------------




----------------------------------------- Iteration    1(  16)  ---------------------------------------


    POTLOK:  cpu time    0.9613: real time    0.9611
    SETDIJ:  cpu time    0.4071: real time    0.4070
     EDDAV:  cpu time   16.0699: real time   16.0734
       DOS:  cpu time    0.0062: real time    0.0062
    CHARGE:  cpu time    3.1283: real time    3.1281
    MIXING:  cpu time    0.0621: real time    0.0621
    --------------------------------------------
      LOOP:  cpu time   20.6355: real time   20.6385

 eigenvalue-minimisations  : 15384
 total energy-change (2. order) :-0.4852394E-01  (-0.7163222E-02)
 number of electron     768.0004389 magnetization      51.2356933
 augmentation part      309.2301681 magnetization      33.8078763

 Broyden mixing:
  rms(total) = 0.24806E+00    rms(broyden)= 0.24805E+00
  rms(prec ) = 0.25593E+00
  weight for this iteration     100.00

 eigenvalues of (default mixing * dielectric matrix)
  average eigenvalue GAMMA=   1.0010
  2.0346  1.8757  1.2124  1.2124  0.8008  0.8008  0.7381  0.7381  0.5773  0.5773
  0.4438

 Free energy of the ion-electron system (eV)
  ---------------------------------------------------
  alpha Z        PSCENC =      5405.26752916
  Ewald energy   TEWEN  =   -103786.92559499
  -Hartree energ DENC   =    -47779.76057735
  -exchange      EXHF   =         0.00000000
  -V(xc)+E(xc)   XCENC  =      5140.29196203
  PAW double counting   =    141073.06404895  -147139.60539187
  entropy T*S    EENTRO =        -0.00023834
  eigenvalues    EBANDS =    -15711.07397359
  atomic energy  EATOM  =    162405.62235658
  Solvation  Ediel_sol  =         0.00000000
  ---------------------------------------------------
  free energy    TOTEN  =      -393.11987942 eV

  energy without entropy =     -393.11964108  energy(sigma->0) =     -393.11976025


--------------------------------------------------------------------------------------------------------




----------------------------------------- Iteration    1(  17)  ---------------------------------------


    POTLOK:  cpu time    0.9484: real time    0.9481
    SETDIJ:  cpu time    0.4063: real time    0.4062
     EDDAV:  cpu time   16.0246: real time   16.0239
       DOS:  cpu time    0.0059: real time    0.0059
    CHARGE:  cpu time    3.1402: real time    3.1401
    MIXING:  cpu time    0.0677: real time    0.0676
    --------------------------------------------
      LOOP:  cpu time   20.5936: real time   20.5924

 eigenvalue-minimisations  : 15160
 total energy-change (2. order) :-0.3110656E-01  (-0.1613880E-02)
 number of electron     768.0004393 magnetization      49.8032185
 augmentation part      309.2472632 magnetization      33.0435027

 Broyden mixing:
  rms(total) = 0.22553E+00    rms(broyden)= 0.22522E+00
  rms(prec ) = 0.22552E+00
  weight for this iteration     100.00

 eigenvalues of (default mixing * dielectric matrix)
  average eigenvalue GAMMA=   1.1082
  2.5679  2.5679  1.1274  1.1274  1.2569  0.7735  0.7735  0.4473  0.7123  0.7123
  0.6157  0.6157

 Free energy of the ion-electron system (eV)
  ---------------------------------------------------
  alpha Z        PSCENC =      5405.26752916
  Ewald energy   TEWEN  =   -103786.92559499
  -Hartree energ DENC   =    -47783.66388681
  -exchange      EXHF   =         0.00000000
  -V(xc)+E(xc)   XCENC  =      5139.96000262
  PAW double counting   =    140880.11000681  -146946.93541637
  entropy T*S    EENTRO =        -0.00023834
  eigenvalues    EBANDS =    -15706.58574465
  atomic energy  EATOM  =    162405.62235658
  Solvation  Ediel_sol  =         0.00000000
  ---------------------------------------------------
  free energy    TOTEN  =      -393.15098598 eV

  energy without entropy =     -393.15074764  energy(sigma->0) =     -393.15086681


--------------------------------------------------------------------------------------------------------




----------------------------------------- Iteration    1(  18)  ---------------------------------------


    POTLOK:  cpu time    0.9477: real time    0.9474
    SETDIJ:  cpu time    0.4069: real time    0.4068
     EDDAV:  cpu time   15.6619: real time   15.6649
       DOS:  cpu time    0.0052: real time    0.0052
    CHARGE:  cpu time    3.1483: real time    3.1479
    MIXING:  cpu time    0.0743: real time    0.0743
    --------------------------------------------
      LOOP:  cpu time   20.2448: real time   20.2471

 eigenvalue-minimisations  : 14904
 total energy-change (2. order) :-0.3055029E-01  (-0.8466626E-03)
 number of electron     768.0004404 magnetization      48.5804277
 augmentation part      309.3130660 magnetization      32.0779747

 Broyden mixing:
  rms(total) = 0.16827E+00    rms(broyden)= 0.16798E+00
  rms(prec ) = 0.17586E+00
  weight for this iteration     100.00

 eigenvalues of (default mixing * dielectric matrix)
  average eigenvalue GAMMA=   1.2021
  3.4675  3.4675  1.1471  1.1471  0.9697  0.9697  0.7230  0.7230  0.7015  0.6639
  0.6639  0.4462  0.5374

 Free energy of the ion-electron system (eV)
  ---------------------------------------------------
  alpha Z        PSCENC =      5405.26752916
  Ewald energy   TEWEN  =   -103786.92559499
  -Hartree energ DENC   =    -47784.01823145
  -exchange      EXHF   =         0.00000000
  -V(xc)+E(xc)   XCENC  =      5139.60179853
  PAW double counting   =    140821.43516211  -146888.99396476
  entropy T*S    EENTRO =        -0.00012939
  eigenvalues    EBANDS =    -15705.17046206
  atomic energy  EATOM  =    162405.62235658
  Solvation  Ediel_sol  =         0.00000000
  ---------------------------------------------------
  free energy    TOTEN  =      -393.18153627 eV

  energy without entropy =     -393.18140689  energy(sigma->0) =     -393.18147158


--------------------------------------------------------------------------------------------------------




----------------------------------------- Iteration    1(  19)  ---------------------------------------


    POTLOK:  cpu time    0.9744: real time    0.9741
    SETDIJ:  cpu time    0.4094: real time    0.4093
     EDDAV:  cpu time   15.6967: real time   15.7006
       DOS:  cpu time    0.0059: real time    0.0059
    CHARGE:  cpu time    3.1521: real time    3.1517
    MIXING:  cpu time    0.0897: real time    0.0897
    --------------------------------------------
      LOOP:  cpu time   20.3287: real time   20.3319

 eigenvalue-minimisations  : 14848
 total energy-change (2. order) :-0.1025736E-01  (-0.2569192E-02)
 number of electron     768.0004404 magnetization      48.0017261
 augmentation part      309.2172528 magnetization      31.5395220

 Broyden mixing:
  rms(total) = 0.53157E-01    rms(broyden)= 0.53028E-01
  rms(prec ) = 0.56907E-01
  weight for this iteration     100.00

 eigenvalues of (default mixing * dielectric matrix)
  average eigenvalue GAMMA=   1.2336
  3.7571  3.7571  1.1214  1.1214  1.2344  0.8862  0.8862  0.7173  0.7173  0.7194
  0.7194  0.4467  0.6185  0.5676

 Free energy of the ion-electron system (eV)
  ---------------------------------------------------
  alpha Z        PSCENC =      5405.26752916
  Ewald energy   TEWEN  =   -103786.92559499
  -Hartree energ DENC   =    -47789.34264786
  -exchange      EXHF   =         0.00000000
  -V(xc)+E(xc)   XCENC  =      5139.17750088
  PAW double counting   =    140866.11832851  -146935.73263490
  entropy T*S    EENTRO =        -0.00006269
  eigenvalues    EBANDS =    -15697.37656832
  atomic energy  EATOM  =    162405.62235658
  Solvation  Ediel_sol  =         0.00000000
  ---------------------------------------------------
  free energy    TOTEN  =      -393.19179363 eV

  energy without entropy =     -393.19173095  energy(sigma->0) =     -393.19176229


--------------------------------------------------------------------------------------------------------




----------------------------------------- Iteration    1(  20)  ---------------------------------------


    POTLOK:  cpu time    0.9549: real time    0.9547
    SETDIJ:  cpu time    0.4075: real time    0.4075
     EDDAV:  cpu time   16.0167: real time   16.0183
       DOS:  cpu time    0.0062: real time    0.0062
    CHARGE:  cpu time    3.1654: real time    3.1652
    MIXING:  cpu time    0.0860: real time    0.0859
    --------------------------------------------
      LOOP:  cpu time   20.6374: real time   20.6384

 eigenvalue-minimisations  : 14992
 total energy-change (2. order) :-0.9231438E-03  (-0.7333698E-03)
 number of electron     768.0004406 magnetization      48.6517183
 augmentation part      309.1997131 magnetization      32.2496601

 Broyden mixing:
  rms(total) = 0.36133E-01    rms(broyden)= 0.36009E-01
  rms(prec ) = 0.36160E-01
  weight for this iteration     100.00

 eigenvalues of (default mixing * dielectric matrix)
  average eigenvalue GAMMA=   1.2323
  3.4601  3.4601  1.8722  1.1264  1.1264  1.3017  0.7255  0.7255  0.8349  0.8349
  0.6872  0.6872  0.4466  0.6202  0.5761

 Free energy of the ion-electron system (eV)
  ---------------------------------------------------
  alpha Z        PSCENC =      5405.26752916
  Ewald energy   TEWEN  =   -103786.92559499
  -Hartree energ DENC   =    -47794.82626434
  -exchange      EXHF   =         0.00000000
  -V(xc)+E(xc)   XCENC  =      5139.31996028
  PAW double counting   =    140753.01318480  -146821.38005615
  entropy T*S    EENTRO =        -0.00015460
  eigenvalues    EBANDS =    -15693.28367752
  atomic energy  EATOM  =    162405.62235658
  Solvation  Ediel_sol  =         0.00000000
  ---------------------------------------------------
  free energy    TOTEN  =      -393.19271678 eV

  energy without entropy =     -393.19256218  energy(sigma->0) =     -393.19263948


--------------------------------------------------------------------------------------------------------




----------------------------------------- Iteration    1(  21)  ---------------------------------------


    POTLOK:  cpu time    0.9574: real time    0.9571
    SETDIJ:  cpu time    0.4077: real time    0.4076
     EDDAV:  cpu time   15.0059: real time   15.0083
       DOS:  cpu time    0.0059: real time    0.0059
    CHARGE:  cpu time    3.1539: real time    3.1535
    MIXING:  cpu time    0.0908: real time    0.0908
    --------------------------------------------
      LOOP:  cpu time   19.6223: real time   19.6238

 eigenvalue-minimisations  : 13952
 total energy-change (2. order) : 0.1271670E-02  (-0.3738218E-03)
 number of electron     768.0004404 magnetization      48.2467097
 augmentation part      309.2040498 magnetization      31.7936569

 Broyden mixing:
  rms(total) = 0.52270E-01    rms(broyden)= 0.52258E-01
  rms(prec ) = 0.54098E-01
  weight for this iteration     100.00

 eigenvalues of (default mixing * dielectric matrix)
  average eigenvalue GAMMA=   1.2428
  3.7099  3.7099  2.0952  1.1229  1.1229  1.0744  1.0744  0.7157  0.7157  0.7872
  0.7872  0.4467  0.6711  0.6711  0.5905  0.5905

[...]
   0.109E-11 0.496E-12 0.158E-10   0.782E-13 0.121E-12 0.639E-13   -.232E-21 -.116E-21 0.221E-21   0.740E-12 0.210E-12 -.163E-11
   0.112E-11 0.486E-12 0.126E-11   -.355E-13 0.135E-12 0.128E-12   0.860E-22 0.207E-21 -.276E-21   0.692E-12 0.242E-12 0.206E-14
   0.105E-11 -.354E-12 0.170E-11   0.284E-13 0.142E-13 0.639E-13   -.146E-21 -.811E-22 0.118E-22   0.807E-12 0.211E-12 -.170E-11
   0.104E-11 -.903E-11 0.950E-11   -.711E-13 0.142E-13 0.128E-12   -.159E-21 -.116E-22 -.298E-22   0.795E-12 0.213E-12 0.234E-13
   0.156E-11 0.523E-12 -.443E-11   -.995E-13 0.114E-12 0.639E-13   0.199E-22 0.000E+00 0.248E-21   0.947E-12 0.124E-12 -.129E-11
   0.155E-11 0.591E-12 -.541E-10   -.142E-13 0.114E-12 0.128E-12   -.210E-21 -.208E-21 -.136E-21   0.993E-12 0.595E-13 0.521E-12
   0.159E-11 -.948E-11 -.840E-11   -.711E-13 0.142E-12 0.711E-14   0.381E-22 -.132E-21 0.313E-21   0.880E-12 0.206E-12 -.142E-11
   0.161E-11 0.124E-10 -.775E-11   0.995E-13 0.142E-12 0.128E-12   0.335E-22 0.662E-23 -.146E-21   0.898E-12 0.300E-12 0.417E-12
   0.116E-11 0.718E-11 -.220E-11   0.115E-12 0.349E-12 0.643E-13   0.124E-22 -.744E-22 -.202E-21   0.657E-12 0.102E-12 0.165E-11
   0.120E-11 -.642E-11 -.461E-11   0.355E-13 0.349E-12 0.125E-12   0.199E-22 0.381E-22 0.146E-21   0.602E-12 0.483E-13 -.113E-11
   0.978E-12 -.608E-11 -.291E-11   -.355E-13 0.360E-12 0.643E-13   -.728E-22 -.430E-22 0.122E-22   0.818E-12 0.339E-12 0.159E-11
   0.102E-11 0.212E-12 -.114E-10   -.114E-12 0.374E-12 0.182E-12   0.121E-21 0.141E-21 -.195E-21   0.758E-12 0.364E-12 -.115E-11
   0.155E-11 0.604E-11 0.167E-10   -.426E-13 0.363E-12 0.121E-12   -.744E-23 0.728E-22 0.196E-21   0.959E-12 0.599E-13 0.210E-11
   0.152E-11 0.110E-11 -.190E-10   -.853E-13 0.349E-12 0.125E-12   -.703E-23 0.304E-21 -.175E-21   0.100E-11 0.764E-13 -.661E-12
   0.168E-11 -.363E-10 0.136E-10   -.142E-13 0.396E-12 0.643E-13   0.131E-21 -.298E-21 -.678E-22   0.797E-12 0.588E-12 0.195E-11
   0.164E-11 0.243E-11 0.252E-11   0.284E-12 0.310E-12 0.680E-13   -.110E-21 -.645E-22 0.151E-21   0.855E-12 0.563E-12 -.598E-12
   0.133E-12 0.313E-12 -.323E-12   -.160E-13 -.346E-13 -.654E-14   0.000E+00 -.375E-23 -.207E-24   -.230E-13 -.588E-15 0.797E-12
   0.160E-12 0.288E-12 -.941E-11   -.853E-13 -.213E-13 0.181E-14   -.248E-23 -.750E-24 -.827E-24   -.628E-13 0.448E-14 -.302E-12
   0.122E-12 0.902E-12 -.105E-10   -.977E-13 -.533E-14 -.654E-14   -.450E-23 -.119E-23 0.383E-23   -.238E-13 -.400E-13 0.862E-12
   0.124E-12 0.102E-11 0.575E-12   -.853E-13 -.213E-13 0.181E-14   -.103E-23 0.103E-23 -.129E-23   -.392E-13 -.408E-13 -.351E-12
   0.470E-12 0.346E-12 0.216E-11   -.577E-13 -.204E-13 0.145E-14   -.672E-24 0.139E-23 0.155E-24   0.284E-12 -.675E-13 0.827E-12
   0.445E-12 0.294E-12 -.151E-11   -.711E-13 -.711E-14 0.270E-14   0.414E-24 -.258E-24 0.434E-23   0.325E-12 -.205E-13 -.312E-12
   0.478E-12 -.105E-11 0.130E-10   -.888E-15 -.533E-14 0.566E-15   0.207E-24 0.194E-23 -.620E-24   0.247E-12 0.366E-13 0.822E-12
   0.473E-12 0.503E-11 -.106E-11   -.142E-13 -.711E-14 0.181E-14   0.196E-23 0.225E-23 -.186E-23   0.266E-12 -.108E-13 -.293E-12
   0.145E-12 -.188E-11 0.906E-12   -.524E-13 0.891E-14 0.000E+00   0.620E-24 0.238E-23 0.786E-23   -.678E-13 -.607E-13 -.453E-12
   0.108E-12 0.389E-11 0.239E-11   -.240E-13 -.497E-13 0.000E+00   0.427E-23 -.129E-25 0.227E-23   -.289E-13 -.116E-12 0.398E-12
   0.759E-13 0.425E-11 0.250E-11   -.355E-13 0.927E-14 0.000E+00   -.176E-23 0.713E-23 0.315E-23   -.183E-13 -.437E-13 -.471E-12
   0.828E-13 -.822E-12 0.220E-11   -.107E-12 0.839E-14 0.000E+00   -.905E-24 -.142E-23 -.931E-24   -.193E-13 0.730E-14 0.385E-12
   0.442E-12 0.488E-11 -.129E-11   -.231E-13 -.337E-13 0.888E-15   0.258E-23 -.620E-24 -.103E-23   0.310E-12 -.131E-12 -.480E-12
   0.480E-12 0.160E-10 -.826E-11   0.533E-14 -.497E-13 0.888E-15   0.465E-23 -.215E-23 -.659E-23   0.263E-12 -.113E-12 0.375E-12
   0.504E-12 -.815E-11 0.117E-10   -.497E-13 0.927E-14 0.000E+00   0.403E-23 0.357E-23 0.589E-23   0.263E-12 0.379E-13 -.528E-12
   0.498E-12 0.153E-11 -.456E-11   0.213E-13 0.226E-13 0.000E+00   0.101E-23 -.176E-23 0.227E-23   0.264E-12 0.173E-13 0.429E-12
   0.288E-12 0.305E-12 0.729E-13   0.959E-13 -.364E-13 -.133E-13   -.103E-23 0.507E-23 0.532E-23   0.143E-12 0.250E-14 -.427E-12
   0.265E-12 0.334E-12 0.361E-12   0.112E-12 -.364E-13 -.622E-14   0.227E-23 -.511E-23 0.763E-24   0.159E-12 -.210E-13 0.356E-12
   0.173E-12 0.201E-12 0.920E-13   0.709E-13 -.213E-13 -.133E-13   0.207E-23 -.116E-23 0.310E-23   0.238E-12 -.573E-13 -.459E-12
   0.220E-12 -.898E-13 -.197E-12   0.169E-12 -.355E-13 -.622E-14   -.931E-24 -.480E-23 -.796E-23   0.186E-12 -.280E-13 0.405E-12
   0.397E-13 0.354E-12 0.190E-10   0.144E-12 -.355E-13 -.142E-13   -.321E-23 0.620E-23 0.000E+00   -.442E-12 -.697E-13 -.479E-12
   0.626E-13 0.336E-12 0.319E-11   0.101E-12 -.355E-13 -.711E-14   0.194E-23 0.491E-24 -.682E-23   -.461E-12 -.525E-13 0.374E-12
   0.145E-12 0.485E-11 0.823E-11   0.115E-12 -.711E-14 -.142E-13   -.584E-23 0.176E-23 0.551E-23   -.541E-12 -.114E-13 -.484E-12
   0.977E-13 0.567E-11 0.490E-11   0.100E-12 -.711E-14 -.711E-14   0.103E-23 -.346E-23 -.103E-24   -.492E-12 -.284E-13 0.395E-12
   0.231E-12 0.662E-13 0.415E-12   0.798E-13 -.627E-14 -.156E-13   -.261E-23 -.188E-23 0.134E-23   0.221E-12 -.742E-13 0.842E-12
   0.202E-12 0.695E-13 0.238E-12   0.108E-12 -.205E-13 -.839E-14   -.207E-24 -.455E-23 -.414E-24   0.223E-12 -.108E-12 -.341E-12
   0.264E-12 0.275E-12 0.444E-12   0.105E-12 0.762E-14 -.151E-13   0.475E-23 -.605E-23 0.713E-23   0.130E-12 -.135E-14 0.827E-12
   0.213E-12 -.297E-12 -.529E-13   0.771E-13 0.756E-14 -.795E-14   0.103E-24 -.109E-23 0.620E-24   0.180E-12 0.317E-13 -.305E-12
   0.671E-13 0.181E-10 -.119E-10   0.139E-12 0.671E-14 -.143E-13   -.982E-24 0.931E-24 0.145E-23   -.513E-12 -.695E-13 0.777E-12
   0.960E-13 0.739E-11 0.820E-11   0.167E-12 -.218E-13 -.715E-14   0.724E-24 0.308E-23 -.403E-23   -.513E-12 -.780E-13 -.302E-12
   0.278E-13 0.263E-11 -.119E-10   0.165E-12 -.693E-14 -.139E-13   -.620E-24 0.134E-23 0.646E-24   -.414E-12 -.310E-13 0.808E-12
   0.806E-13 0.551E-11 0.423E-11   0.941E-13 0.722E-14 -.671E-14   0.132E-23 0.527E-23 -.517E-25   -.463E-12 -.161E-13 -.321E-12
 -----------------------------------------------------------------------------------------------
   0.332E-10 0.106E-09 -.608E-10   -.239E-13 0.223E-12 0.233E-12   -.110E-20 -.626E-21 -.718E-22   0.717E-11 0.560E-11 0.155E-11
 
 
 POSITION                                       TOTAL-FORCE (eV/Angst)
 -----------------------------------------------------------------------------------
      0.00000      0.00000      0.00000        -0.000000     -0.000000     -0.000000
      0.00000      0.00000      4.18658         0.000000      0.000000     -0.000000
      0.00000      4.18658      0.00000         0.000000      0.000000      0.000000
      0.00000      4.18658      4.18658        -0.000000     -0.000000      0.000000
      4.18658      0.00000      0.00000         0.000000      0.000000      0.000000
      4.18658      0.00000      4.18658         0.000000      0.000000      0.000000
      4.18658      4.18658      0.00000        -0.000000     -0.000000     -0.000000
      4.18658      4.18658      4.18658         0.000000      0.000000      0.000000
      0.00000      2.09329      2.09329         0.000000      0.000000      0.000000
      0.00000      2.09329      6.27987        -0.000000      0.000000      0.000000
      0.00000      6.27987      2.09329        -0.000000     -0.000000      0.000000
      0.00000      6.27987      6.27987         0.000000      0.000000     -0.000000
      4.18658      2.09329      2.09329        -0.000000     -0.000000     -0.000000
      4.18658      2.09329      6.27987         0.000000      0.000000     -0.000000
      4.18658      6.27987      2.09329         0.000000     -0.000000      0.000000
      4.18658      6.27987      6.27987        -0.000000     -0.000000     -0.000000
      2.09329      0.00000      2.09329        -0.000000     -0.000000     -0.000000
      2.09329      0.00000      6.27987         0.000000     -0.000000      0.000000
      2.09329      4.18658      2.09329         0.000000     -0.000000      0.000000
      2.09329      4.18658      6.27987        -0.000000      0.000000     -0.000000
      6.27987      0.00000      2.09329         0.000000     -0.000000      0.000000
      6.27987      0.00000      6.27987        -0.000000      0.000000     -0.000000
      6.27987      4.18658      2.09329        -0.000000      0.000000     -0.000000
      6.27987      4.18658      6.27987         0.000000     -0.000000     -0.000000
      2.09329      2.09329      0.00000        -0.000000     -0.000000      0.000000
      2.09329      2.09329      4.18658         0.000000     -0.000000     -0.000000
      2.09329      6.27987      0.00000         0.000000      0.000000     -0.000000
      2.09329      6.27987      4.18658        -0.000000      0.000000     -0.000000
      6.27987      2.09329      0.00000         0.000000      0.000000      0.000000
      6.27987      2.09329      4.18658        -0.000000      0.000000      0.000000
      6.27987      6.27987      0.00000        -0.000000      0.000000      0.000000
      6.27987      6.27987      4.18658         0.000000     -0.000000     -0.000000
      2.09329      0.00000      0.00000         0.000000      0.000000     -0.000000
      2.09329      0.00000      4.18658        -0.000000      0.000000      0.000000
      2.09329      4.18658      0.00000         0.000000     -0.000000     -0.000000
      2.09329      4.18658      4.18658        -0.000000     -0.000000      0.000000
      6.27987      0.00000      0.00000         0.000000     -0.000000     -0.000000
      6.27987      0.00000      4.18658         0.000000      0.000000     -0.000000
      6.27987      4.18658      0.00000        -0.000000     -0.000000     -0.000000
      6.27987      4.18658      4.18658        -0.000000     -0.000000      0.000000
      2.09329      2.09329      2.09329         0.000000      0.000000     -0.000000
      2.09329      2.09329      6.27987         0.000000      0.000000      0.000000
      2.09329      6.27987      2.09329         0.000000     -0.000000     -0.000000
      2.09329      6.27987      6.27987        -0.000000     -0.000000     -0.000000
      6.27987      2.09329      2.09329         0.000000      0.000000     -0.000000
      6.27987      2.09329      6.27987         0.000000     -0.000000     -0.000000
      6.27987      6.27987      2.09329        -0.000000      0.000000      0.000000
      6.27987      6.27987      6.27987        -0.000000     -0.000000      0.000000
      0.00000      0.00000      2.09329        -0.000000      0.000000      0.000000
      0.00000      0.00000      6.27987        -0.000000      0.000000      0.000000
      0.00000      4.18658      2.09329         0.000000      0.000000      0.000000
      0.00000      4.18658      6.27987        -0.000000     -0.000000     -0.000000
      4.18658      0.00000      2.09329         0.000000     -0.000000     -0.000000
      4.18658      0.00000      6.27987         0.000000      0.000000      0.000000
      4.18658      4.18658      2.09329        -0.000000      0.000000     -0.000000
      4.18658      4.18658      6.27987         0.000000     -0.000000      0.000000
      0.00000      2.09329      0.00000         0.000000     -0.000000     -0.000000
      0.00000      2.09329      4.18658         0.000000      0.000000      0.000000
      0.00000      6.27987      0.00000         0.000000      0.000000      0.000000
      0.00000      6.27987      4.18658         0.000000     -0.000000      0.000000
      4.18658      2.09329      0.00000         0.000000      0.000000      0.000000
      4.18658      2.09329      4.18658        -0.000000      0.000000     -0.000000
      4.18658      6.27987      0.00000         0.000000      0.000000     -0.000000
      4.18658      6.27987      4.18658        -0.000000     -0.000000     -0.000000
 -----------------------------------------------------------------------------------
    total drift:                                0.000000      0.000000     -0.000000


--------------------------------------------------------------------------------------------------------



  FREE ENERGIE OF THE ION-ELECTRON SYSTEM (eV)
  ---------------------------------------------------
  free  energy   TOTEN  =      -393.19301089 eV

  energy  without entropy=     -393.19285629  energy(sigma->0) =     -393.19293359
 


--------------------------------------------------------------------------------------------------------


    POTLOK:  cpu time    1.3596: real time    1.3592


--------------------------------------------------------------------------------------------------------


 writing wavefunctions
     LOOP+:  cpu time  573.7245: real time  573.7992
    4ORBIT:  cpu time    0.0000: real time    0.0000
 


 total charge     
 
# of ion       s       p       d       f       tot
--------------------------------------------------
    1        2.150   6.213   7.814   0.009  16.186
    2        2.150   6.213   7.814   0.009  16.186
    3        2.150   6.213   7.814   0.009  16.186
    4        2.150   6.213   7.814   0.009  16.186
    5        2.150   6.213   7.814   0.009  16.186
    6        2.150   6.213   7.814   0.009  16.186
    7        2.150   6.213   7.814   0.009  16.186
    8        2.150   6.213   7.814   0.009  16.186
    9        2.150   6.213   7.814   0.009  16.186
   10        2.150   6.213   7.814   0.009  16.186
   11        2.150   6.213   7.814   0.009  16.186
   12        2.150   6.213   7.814   0.009  16.186
   13        2.150   6.213   7.814   0.009  16.186
   14        2.150   6.213   7.814   0.009  16.186
   15        2.150   6.213   7.814   0.009  16.186
   16        2.150   6.213   7.814   0.009  16.186
   17        2.150   6.213   7.814   0.009  16.186
   18        2.150   6.213   7.814   0.009  16.186
   19        2.150   6.213   7.814   0.009  16.186
   20        2.150   6.213   7.814   0.009  16.186
   21        2.150   6.213   7.814   0.009  16.186
   22        2.150   6.213   7.814   0.009  16.186
   23        2.150   6.213   7.814   0.009  16.186
   24        2.150   6.213   7.814   0.009  16.186
   25        2.150   6.213   7.814   0.009  16.186
   26        2.150   6.213   7.814   0.009  16.186
   27        2.150   6.213   7.814   0.009  16.186
   28        2.150   6.213   7.814   0.009  16.186
   29        2.150   6.213   7.814   0.009  16.186
   30        2.150   6.213   7.814   0.009  16.186
   31        2.150   6.213   7.814   0.009  16.186
   32        2.150   6.213   7.814   0.009  16.186
   33        1.625   3.542   0.019   0.000   5.186
   34        1.625   3.542   0.019   0.000   5.186
   35        1.625   3.542   0.019   0.000   5.186
   36        1.625   3.542   0.019   0.000   5.186
   37        1.625   3.542   0.019   0.000   5.186
   38        1.625   3.542   0.019   0.000   5.186
   39        1.625   3.542   0.019   0.000   5.186
   40        1.625   3.542   0.019   0.000   5.186
   41        1.625   3.542   0.019   0.000   5.186
   42        1.625   3.542   0.019   0.000   5.186
   43        1.625   3.542   0.019   0.000   5.186
   44        1.625   3.542   0.019   0.000   5.186
   45        1.625   3.542   0.019   0.000   5.186
   46        1.625   3.542   0.019   0.000   5.186
   47        1.625   3.542   0.019   0.000   5.186
   48        1.625   3.542   0.019   0.000   5.186
   49        1.625   3.542   0.019   0.000   5.186
   50        1.625   3.542   0.019   0.000   5.186
   51        1.625   3.542   0.019   0.000   5.186
   52        1.625   3.542   0.019   0.000   5.186
   53        1.625   3.542   0.019   0.000   5.186
   54        1.625   3.542   0.019   0.000   5.186
   55        1.625   3.542   0.019   0.000   5.186
   56        1.625   3.542   0.019   0.000   5.186
   57        1.625   3.542   0.019   0.000   5.186
   58        1.625   3.542   0.019   0.000   5.186
   59        1.625   3.542   0.019   0.000   5.186
   60        1.625   3.542   0.019   0.000   5.186
   61        1.625   3.542   0.019   0.000   5.186
   62        1.625   3.542   0.019   0.000   5.186
   63        1.625   3.542   0.019   0.000   5.186
   64        1.625   3.542   0.019   0.000   5.186
--------------------------------------------------
tot        120.786 312.167 250.645   0.289 683.886

 


 magnetization (x)
 
# of ion       s       p       d       f       tot
--------------------------------------------------
    1        0.007   0.011   1.227   0.001   1.246
    2        0.007   0.011   1.227   0.001   1.246
    3        0.007   0.011   1.227   0.001   1.246
    4        0.007   0.011   1.227   0.001   1.246
    5        0.007   0.011   1.227   0.001   1.246
    6        0.007   0.011   1.227   0.001   1.246
    7        0.007   0.011   1.227   0.001   1.246
    8        0.007   0.011   1.227   0.001   1.246
    9        0.007   0.011   1.227   0.001   1.246
   10        0.007   0.011   1.227   0.001   1.246
   11        0.007   0.011   1.227   0.001   1.246
   12        0.007   0.011   1.227   0.001   1.246
   13        0.007   0.011   1.227   0.001   1.246
   14        0.007   0.011   1.227   0.001   1.246
   15        0.007   0.011   1.227   0.001   1.246
   16        0.007   0.011   1.227   0.001   1.246
   17        0.007   0.011   1.227   0.001   1.246
   18        0.007   0.011   1.227   0.001   1.246
   19        0.007   0.011   1.227   0.001   1.246
   20        0.007   0.011   1.227   0.001   1.246
   21        0.007   0.011   1.227   0.001   1.246
   22        0.007   0.011   1.227   0.001   1.246
   23        0.007   0.011   1.227   0.001   1.246
   24        0.007   0.011   1.227   0.001   1.246
   25        0.007   0.011   1.227   0.001   1.246
   26        0.007   0.011   1.227   0.001   1.246
   27        0.007   0.011   1.227   0.001   1.246
   28        0.007   0.011   1.227   0.001   1.246
   29        0.007   0.011   1.227   0.001   1.246
   30        0.007   0.011   1.227   0.001   1.246
   31        0.007   0.011   1.227   0.001   1.246
   32        0.007   0.011   1.227   0.001   1.246
   33        0.025   0.203   0.003   0.000   0.231
   34        0.025   0.203   0.003   0.000   0.231
   35        0.025   0.203   0.003   0.000   0.231
   36        0.025   0.203   0.003   0.000   0.231
   37        0.025   0.203   0.003   0.000   0.231
   38        0.025   0.203   0.003   0.000   0.231
   39        0.025   0.203   0.003   0.000   0.231
   40        0.025   0.203   0.003   0.000   0.231
   41        0.025   0.204   0.003   0.000   0.231
   42        0.025   0.204   0.003   0.000   0.231
   43        0.025   0.204   0.003   0.000   0.231
   44        0.025   0.204   0.003   0.000   0.231
   45        0.025   0.204   0.003   0.000   0.231
   46        0.025   0.204   0.003   0.000   0.231
   47        0.025   0.204   0.003   0.000   0.231
   48        0.025   0.204   0.003   0.000   0.231
   49        0.025   0.203   0.003   0.000   0.231
   50        0.025   0.203   0.003   0.000   0.231
   51        0.025   0.203   0.003   0.000   0.231
   52        0.025   0.203   0.003   0.000   0.231
   53        0.025   0.203   0.003   0.000   0.231
   54        0.025   0.203   0.003   0.000   0.231
   55        0.025   0.203   0.003   0.000   0.231
   56        0.025   0.203   0.003   0.000   0.231
   57        0.025   0.203   0.003   0.000   0.231
   58        0.025   0.203   0.003   0.000   0.231
   59        0.025   0.203   0.003   0.000   0.231
   60        0.025   0.203   0.003   0.000   0.231
   61        0.025   0.203   0.003   0.000   0.231
   62        0.025   0.203   0.003   0.000   0.231
   63        0.025   0.203   0.003   0.000   0.231
   64        0.025   0.203   0.003   0.000   0.231
--------------------------------------------------
tot          1.027   6.868  39.335   0.025  47.255

 
