       N       E                     dE             d eps       ncg     rms          rms(c)
DAV:   1     0.223207216600E+05    0.22321E+05   -0.38690E+05  4336   0.205E+04
DAV:   2    -0.142776083695E+05   -0.36598E+05   -0.32873E+05  4176   0.433E+03
DAV:   3    -0.245229885110E+05   -0.10245E+05   -0.99463E+04  5088   0.924E+02
DAV:   4    -0.262528179922E+05   -0.17298E+04   -0.16327E+04  5344   0.434E+02
DAV:   5    -0.264567989726E+05   -0.20398E+03   -0.18646E+03  5488   0.163E+02    0.116E+03
DAV:   6    -0.413563042413E+04    0.22321E+05   -0.30473E+04  4928   0.114E+03    0.745E+02
DAV:   7    -0.438661696291E+04   -0.25099E+03   -0.48046E+04  5704   0.269E+03    0.452E+02
DAV:   8    -0.158537431404E+04    0.28012E+04   -0.34654E+04  5232   0.283E+03    0.475E+02
DAV:   9    -0.886546578465E+03    0.69883E+03   -0.15563E+04  5592   0.111E+03    0.238E+02
DAV:  10    -0.145887177524E+04   -0.57233E+03   -0.44083E+03  6600   0.488E+02    0.338E+02
DAV:  11    -0.672685019365E+03    0.78619E+03   -0.86553E+02  5464   0.456E+02    0.214E+02
DAV:  12    -0.417224233672E+03    0.25546E+03   -0.61027E+02  5880   0.429E+02    0.801E+01
DAV:  13    -0.433144399237E+03   -0.15920E+02   -0.16054E+02  7024   0.126E+02    0.763E+01
DAV:  14    -0.459531325143E+03   -0.26387E+02   -0.45190E+01  7104   0.717E+01    0.762E+01
DAV:  15    -0.471941451817E+03   -0.12410E+02   -0.97456E+00  6512   0.360E+01    0.915E+01
DAV:  16    -0.414177902364E+03    0.57764E+02   -0.92724E+01  5576   0.669E+01    0.514E+01
DAV:  17    -0.397154945056E+03    0.17023E+02   -0.29433E+01  6520   0.693E+01    0.341E+01
DAV:  18    -0.393470176400E+03    0.36848E+01   -0.95191E+00  6856   0.308E+01    0.256E+01
DAV:  19    -0.392120796506E+03    0.13494E+01   -0.26426E+00  6848   0.113E+01    0.198E+01
DAV:  20    -0.392147977134E+03   -0.27181E-01   -0.23848E+00  7104   0.812E+00    0.159E+01
DAV:  21    -0.391994730216E+03    0.15325E+00   -0.73120E-01  6272   0.132E+01    0.971E+00
DAV:  22    -0.392024069507E+03   -0.29339E-01   -0.24744E-01  5648   0.562E+00    0.396E+00
DAV:  23    -0.391985814829E+03    0.38255E-01   -0.28451E-01  5600   0.702E+00    0.284E+00
DAV:  24    -0.392057993370E+03   -0.72179E-01   -0.33735E-01  6264   0.938E+00    0.249E+00
DAV:  25    -0.391974482952E+03    0.83510E-01   -0.11411E-01  5920   0.638E+00    0.913E-01
DAV:  26    -0.391968883184E+03    0.55998E-02   -0.32418E-02  6672   0.198E+00    0.206E-01
DAV:  27    -0.391971837019E+03   -0.29538E-02   -0.13922E-02  5744   0.213E+00    0.579E-01
DAV:  28    -0.391968270601E+03    0.35664E-02   -0.89786E-03  6328   0.190E+00    0.167E-01
DAV:  29    -0.391968118974E+03    0.15163E-03   -0.23413E-03  6696   0.610E-01    0.117E-01
DAV:  30    -0.391968138987E+03   -0.20013E-04   -0.27117E-04  6432   0.137E-01    0.986E-02
DAV:  31    -0.391968146424E+03   -0.74374E-05   -0.44215E-05  5256   0.554E-02    0.242E-02
DAV:  32    -0.391968145151E+03    0.12736E-05   -0.23488E-05  4992   0.914E-02    0.204E-02
DAV:  33    -0.391968147742E+03   -0.25916E-05   -0.12623E-05  4512   0.436E-02    0.152E-02
DAV:  34    -0.391968146880E+03    0.86200E-06   -0.43008E-06  3152   0.465E-02
   1 F= -.39196815E+03 E0= -.39196794E+03  d E =-.411535E-03
