 vasp.5.4.4.18Apr17-6-g9f103f2a35 (build Oct 10 2019 09:51:33) complex          
  
 executed on   carbon_intel19_gpu date 2020.09.25  15:17:25
 running on    1 total cores
 distrk:  each k-point on    1 cores,    1 groups
 distr:  one band on NCORES_PER_BAND=   1 cores,    1 groups


--------------------------------------------------------------------------------------------------------


 INCAR:
 POTCAR:    PAW_PBE Ni_sv_GW 05Dec2013            
 POTCAR:    PAW_PBE O_GW 19Mar2012                
 POTCAR:    PAW_PBE Ni_sv_GW 05Dec2013            
   VRHFIN =Ni:                                                                  
   LEXCH  = PE                                                                  
   EATOM  =  4642.8712 eV,  341.2414 Ry                                         
                                                                                
   TITEL  = PAW_PBE Ni_sv_GW 05Dec2013                                          
   LULTRA =        F    use ultrasoft PP ?                                      
   IUNSCR =        1    unscreen: 0-lin 1-nonlin 2-no                           
   RPACOR =    1.400    partial core radius                                     
   POMASS =   58.690; ZVAL   =   18.000    mass and valenz                      
   RCORE  =    1.900    outmost cutoff radius                                   
   RWIGS  =    2.100; RWIGS  =    1.111    wigner-seitz radius (au A)           
   ENMAX  =  389.645; ENMIN  =  292.234 eV                                      
   RCLOC  =    1.301    cutoff for local pot                                    
   LCOR   =        T    correct aug charges                                     
   LPAW   =        T    paw PP                                                  
   EAUG   = 1036.387                                                            
   RMAX   =    1.945    core radius for proj-oper                               
   RAUG   =    1.300    factor for augmentation sphere                          
   RDEP   =    1.972    radius for radial grids                                 
   RDEPT  =    1.600    core radius for aug-charge                              
                                                                                
   Atomic configuration                                                         
    8 entries                                                                   
     n  l   j            E        occ.                                          
     1  0  0.50     -8203.3308   2.0000                                         
     2  0  0.50      -972.7019   2.0000                                         
     2  1  1.50      -835.6236   6.0000                                         
     3  0  0.50      -102.6944   2.0000                                         
     3  1  1.50       -63.2363   6.0000                                         
     3  1  1.50       -68.0291   0.0000                                         
     3  2  2.50        -1.9692  10.0000                                         
     4  3  2.50        -1.3606   0.0000                                         
   Description                                                                  
     l       E           TYP  RCUT    TYP  RCUT                                 
     0   -102.6944069     23  1.400                                             
     0      1.3605826     23  1.700                                             
     0    204.0873900     23  1.400                                             
     1    -63.2363356     23  1.650                                             
     1    -68.0291300     23  1.650                                             
     1    136.0582600     23  1.650                                             
     2     -1.9691936     23  1.900                                             
     2     27.2116520     23  1.900                                             
     2    136.0582600     23  1.900                                             
     3     27.2116520     23  1.900                                             
     3    136.0582600     23  1.900                                             
  local pseudopotential read in
  partial core-charges read in
  partial kinetic energy density read in
  kinetic energy density of atom read in
  atomic valenz-charges read in
  non local Contribution for L=           0  read in
    real space projection operators read in
  non local Contribution for L=           0  read in
    real space projection operators read in
  non local Contribution for L=           0  read in
    real space projection operators read in
  non local Contribution for L=           1  read in
    real space projection operators read in
  non local Contribution for L=           1  read in
    real space projection operators read in
  non local Contribution for L=           1  read in
    real space projection operators read in
  non local Contribution for L=           2  read in
    real space projection operators read in
  non local Contribution for L=           2  read in
    real space projection operators read in
  non local Contribution for L=           2  read in
    real space projection operators read in
  non local Contribution for L=           3  read in
    real space projection operators read in
  non local Contribution for L=           3  read in
    real space projection operators read in
    PAW grid and wavefunctions read in
 
   number of l-projection  operators is LMAX  =          11
   number of lm-projection operators is LMMAX =          41
 
 POTCAR:    PAW_PBE O_GW 19Mar2012                
   VRHFIN =O: s2p4                                                              
   LEXCH  = PE                                                                  
   EATOM  =   432.3788 eV,   31.7789 Ry                                         
                                                                                
   TITEL  = PAW_PBE O_GW 19Mar2012                                              
   LULTRA =        F    use ultrasoft PP ?                                      
   IUNSCR =        1    unscreen: 0-lin 1-nonlin 2-no                           
   RPACOR =    0.800    partial core radius                                     
   POMASS =   16.000; ZVAL   =    6.000    mass and valenz                      
   RCORE  =    1.600    outmost cutoff radius                                   
   RWIGS  =    1.600; RWIGS  =    0.847    wigner-seitz radius (au A)           
   ENMAX  =  434.431; ENMIN  =  325.824 eV                                      
   ICORE  =        3    local potential                                         
   LCOR   =        T    correct aug charges                                     
   LPAW   =        T    paw PP                                                  
   EAUG   = 1139.609                                                            
   DEXC   =    0.000                                                            
   RMAX   =    1.629    core radius for proj-oper                               
   RAUG   =    1.300    factor for augmentation sphere                          
   RDEP   =    1.652    radius for radial grids                                 
   RDEPT  =    1.200    core radius for aug-charge                              
                                                                                
   Atomic configuration                                                         
    5 entries                                                                   
     n  l   j            E        occ.                                          
     1  0  0.50      -514.6923   2.0000                                         
     2  0  0.50       -23.9615   2.0000                                         
     2  1  0.50        -9.0305   4.0000                                         
     3  2  1.50        -9.5241   0.0000                                         
     4  3  2.50        -9.5241   0.0000                                         
   Description                                                                  
     l       E           TYP  RCUT    TYP  RCUT                                 
     0    -23.9615316     23  1.150                                             
     0    -25.3221142     23  1.150                                             
     0    244.9048680     23  1.300                                             
     1     -9.0304908     23  1.500                                             
     1     -6.9258396     23  1.500                                             
     1    122.4524340     23  1.500                                             
     2     13.6058260     23  1.500                                             
     2    190.4815640     23  1.600                                             
     3     54.4233040     23  1.400                                             
  local pseudopotential read in
  partial core-charges read in
  partial kinetic energy density read in
  kinetic energy density of atom read in
  atomic valenz-charges read in
  non local Contribution for L=           0  read in
    real space projection operators read in
  non local Contribution for L=           0  read in
    real space projection operators read in
  non local Contribution for L=           0  read in
    real space projection operators read in
  non local Contribution for L=           1  read in
    real space projection operators read in
  non local Contribution for L=           1  read in
    real space projection operators read in
  non local Contribution for L=           1  read in
    real space projection operators read in
  non local Contribution for L=           2  read in
    real space projection operators read in
  non local Contribution for L=           2  read in
    real space projection operators read in
    PAW grid and wavefunctions read in
 
   number of l-projection  operators is LMAX  =           8
   number of lm-projection operators is LMMAX =          22
 
 Optimization of the real space projectors (new method)

 maximal supplied QI-value         = 19.84
 optimisation between [QCUT,QGAM] = [ 12.50, 25.00] = [ 43.76,175.03] Ry 
 Optimized for a Real-space Cutoff    1.31 Angstroem

   l    n(q)    QCUT    max X(q) W(low)/X(q) W(high)/X(q)  e(spline) 
   0     10    12.501     2.300    0.65E-05    0.25E-06    0.79E-07
   0     10    12.501     7.576    0.25E-04    0.52E-05    0.18E-06
   0     10    12.501     1.388    0.34E-04    0.75E-05    0.48E-06
   1      9    12.501    11.002    0.11E-03    0.24E-03    0.54E-06
   1      9    12.501    14.537    0.90E-04    0.23E-03    0.70E-06
   1      9    12.501     3.893    0.34E-04    0.51E-04    0.68E-06
   2      9    12.501    14.869    0.32E-03    0.35E-03    0.49E-06
   2      9    12.501     7.291    0.12E-03    0.20E-03    0.30E-06
   2      9    12.501     6.907    0.35E-03    0.37E-03    0.52E-06
   3      8    12.501    10.598    0.33E-03    0.15E-03    0.57E-06
   3      8    12.501     2.997    0.28E-03    0.16E-03    0.51E-06
 Optimization of the real space projectors (new method)

 maximal supplied QI-value         = 23.62
 optimisation between [QCUT,QGAM] = [ 12.52, 25.04] = [ 43.89,175.56] Ry 
 Optimized for a Real-space Cutoff    1.35 Angstroem

   l    n(q)    QCUT    max X(q) W(low)/X(q) W(high)/X(q)  e(spline) 
   0     10    12.519   116.464    0.13E-03    0.15E-03    0.46E-05
   0     10    12.519   116.329    0.13E-03    0.15E-03    0.44E-05
   0     10    12.519     0.942    0.35E-04    0.90E-04    0.23E-05
   1     10    12.519   133.003    0.28E-03    0.77E-04    0.26E-05
   1     10    12.519   116.443    0.28E-03    0.76E-04    0.26E-05
   1     10    12.519     2.481    0.45E-03    0.95E-04    0.45E-05
   2      9    12.519     2.237    0.21E-04    0.33E-04    0.21E-06
   2      9    12.519     2.497    0.16E-03    0.12E-03    0.32E-06
  PAW_PBE Ni_sv_GW 05Dec2013            :
 energy of atom  1       EATOM=-4642.8712
 kinetic energy error for atom=    0.0555 (will be added to EATOM!!)
  PAW_PBE O_GW 19Mar2012                :
 energy of atom  2       EATOM= -432.3788
 kinetic energy error for atom=    0.0188 (will be added to EATOM!!)
 
 
 POSCAR: NiO                                     
  positions in direct lattice
  No initial velocities read in
 exchange correlation table for  LEXCH =        8
   RHO(1)=    0.500       N(1)  =     2000
   RHO(2)=  100.500       N(2)  =     4000
 


--------------------------------------------------------------------------------------------------------


 ion  position               nearest neighbor table
   1  0.000  0.000  0.000-  33 2.08  37 2.08  49 2.08  50 2.08  57 2.08  59 2.08
   2  0.000  0.000  0.500-  34 2.08  38 2.08  49 2.08  50 2.08  58 2.08  60 2.08
   3  0.000  0.500  0.000-  35 2.08  39 2.08  51 2.08  52 2.08  57 2.08  59 2.08
   4  0.000  0.500  0.500-  36 2.08  40 2.08  51 2.08  52 2.08  58 2.08  60 2.08
   5  0.500  0.000  0.000-  33 2.08  37 2.08  53 2.08  54 2.08  61 2.08  63 2.08
   6  0.500  0.000  0.500-  34 2.08  38 2.08  53 2.08  54 2.08  62 2.08  64 2.08
   7  0.500  0.500  0.000-  35 2.08  39 2.08  55 2.08  56 2.08  61 2.08  63 2.08
   8  0.500  0.500  0.500-  36 2.08  40 2.08  55 2.08  56 2.08  62 2.08  64 2.08
   9  0.000  0.250  0.250-  41 2.08  45 2.08  49 2.08  51 2.08  57 2.08  58 2.08
  10  0.000  0.250  0.750-  42 2.08  46 2.08  50 2.08  52 2.08  57 2.08  58 2.08
  11  0.000  0.750  0.250-  43 2.08  47 2.08  49 2.08  51 2.08  59 2.08  60 2.08
  12  0.000  0.750  0.750-  44 2.08  48 2.08  50 2.08  52 2.08  59 2.08  60 2.08
  13  0.500  0.250  0.250-  41 2.08  45 2.08  53 2.08  55 2.08  61 2.08  62 2.08
  14  0.500  0.250  0.750-  42 2.08  46 2.08  54 2.08  56 2.08  61 2.08  62 2.08
  15  0.500  0.750  0.250-  43 2.08  47 2.08  53 2.08  55 2.08  63 2.08  64 2.08
  16  0.500  0.750  0.750-  44 2.08  48 2.08  54 2.08  56 2.08  63 2.08  64 2.08
  17  0.250  0.000  0.250-  33 2.08  34 2.08  41 2.08  43 2.08  49 2.08  53 2.08
  18  0.250  0.000  0.750-  33 2.08  34 2.08  42 2.08  44 2.08  50 2.08  54 2.08
  19  0.250  0.500  0.250-  35 2.08  36 2.08  41 2.08  43 2.08  51 2.08  55 2.08
  20  0.250  0.500  0.750-  35 2.08  36 2.08  42 2.08  44 2.08  52 2.08  56 2.08
  21  0.750  0.000  0.250-  37 2.08  38 2.08  45 2.08  47 2.08  49 2.08  53 2.08
  22  0.750  0.000  0.750-  37 2.08  38 2.08  46 2.08  48 2.08  50 2.08  54 2.08
  23  0.750  0.500  0.250-  39 2.08  40 2.08  45 2.08  47 2.08  51 2.08  55 2.08
  24  0.750  0.500  0.750-  39 2.08  40 2.08  46 2.08  48 2.08  52 2.08  56 2.08
  25  0.250  0.250  0.000-  33 2.08  35 2.08  41 2.08  42 2.08  57 2.08  61 2.08
  26  0.250  0.250  0.500-  34 2.08  36 2.08  41 2.08  42 2.08  58 2.08  62 2.08
  27  0.250  0.750  0.000-  33 2.08  35 2.08  43 2.08  44 2.08  59 2.08  63 2.08
  28  0.250  0.750  0.500-  34 2.08  36 2.08  43 2.08  44 2.08  60 2.08  64 2.08
  29  0.750  0.250  0.000-  37 2.08  39 2.08  45 2.08  46 2.08  57 2.08  61 2.08
  30  0.750  0.250  0.500-  38 2.08  40 2.08  45 2.08  46 2.08  58 2.08  62 2.08
  31  0.750  0.750  0.000-  37 2.08  39 2.08  47 2.08  48 2.08  59 2.08  63 2.08
  32  0.750  0.750  0.500-  38 2.08  40 2.08  47 2.08  48 2.08  60 2.08  64 2.08
  33  0.250  0.000  0.000-   1 2.08   5 2.08  17 2.08  18 2.08  25 2.08  27 2.08
  34  0.250  0.000  0.500-   2 2.08   6 2.08  17 2.08  18 2.08  26 2.08  28 2.08
  35  0.250  0.500  0.000-   3 2.08   7 2.08  19 2.08  20 2.08  25 2.08  27 2.08
  36  0.250  0.500  0.500-   4 2.08   8 2.08  19 2.08  20 2.08  26 2.08  28 2.08
  37  0.750  0.000  0.000-   1 2.08   5 2.08  21 2.08  22 2.08  29 2.08  31 2.08
  38  0.750  0.000  0.500-   2 2.08   6 2.08  21 2.08  22 2.08  30 2.08  32 2.08
  39  0.750  0.500  0.000-   3 2.08   7 2.08  23 2.08  24 2.08  29 2.08  31 2.08
  40  0.750  0.500  0.500-   4 2.08   8 2.08  23 2.08  24 2.08  30 2.08  32 2.08
  41  0.250  0.250  0.250-   9 2.08  13 2.08  17 2.08  19 2.08  25 2.08  26 2.08
  42  0.250  0.250  0.750-  10 2.08  14 2.08  18 2.08  20 2.08  25 2.08  26 2.08
  43  0.250  0.750  0.250-  11 2.08  15 2.08  17 2.08  19 2.08  27 2.08  28 2.08
  44  0.250  0.750  0.750-  12 2.08  16 2.08  18 2.08  20 2.08  27 2.08  28 2.08
  45  0.750  0.250  0.250-   9 2.08  13 2.08  21 2.08  23 2.08  29 2.08  30 2.08
  46  0.750  0.250  0.750-  10 2.08  14 2.08  22 2.08  24 2.08  29 2.08  30 2.08
  47  0.750  0.750  0.250-  11 2.08  15 2.08  21 2.08  23 2.08  31 2.08  32 2.08
  48  0.750  0.750  0.750-  12 2.08  16 2.08  22 2.08  24 2.08  31 2.08  32 2.08
  49  0.000  0.000  0.250-   1 2.08   2 2.08   9 2.08  11 2.08  17 2.08  21 2.08
  50  0.000  0.000  0.750-   1 2.08   2 2.08  10 2.08  12 2.08  18 2.08  22 2.08
  51  0.000  0.500  0.250-   3 2.08   4 2.08   9 2.08  11 2.08  19 2.08  23 2.08
  52  0.000  0.500  0.750-   3 2.08   4 2.08  10 2.08  12 2.08  20 2.08  24 2.08
  53  0.500  0.000  0.250-   5 2.08   6 2.08  13 2.08  15 2.08  17 2.08  21 2.08
  54  0.500  0.000  0.750-   5 2.08   6 2.08  14 2.08  16 2.08  18 2.08  22 2.08
  55  0.500  0.500  0.250-   7 2.08   8 2.08  13 2.08  15 2.08  19 2.08  23 2.08
  56  0.500  0.500  0.750-   7 2.08   8 2.08  14 2.08  16 2.08  20 2.08  24 2.08
  57  0.000  0.250  0.000-   1 2.08   3 2.08   9 2.08  10 2.08  25 2.08  29 2.08
  58  0.000  0.250  0.500-   2 2.08   4 2.08   9 2.08  10 2.08  26 2.08  30 2.08
  59  0.000  0.750  0.000-   1 2.08   3 2.08  11 2.08  12 2.08  27 2.08  31 2.08
  60  0.000  0.750  0.500-   2 2.08   4 2.08  11 2.08  12 2.08  28 2.08  32 2.08
  61  0.500  0.250  0.000-   5 2.08   7 2.08  13 2.08  14 2.08  25 2.08  29 2.08
  62  0.500  0.250  0.500-   6 2.08   8 2.08  13 2.08  14 2.08  26 2.08  30 2.08
  63  0.500  0.750  0.000-   5 2.08   7 2.08  15 2.08  16 2.08  27 2.08  31 2.08
  64  0.500  0.750  0.500-   6 2.08   8 2.08  15 2.08  16 2.08  28 2.08  32 2.08
 
  LATTYP: Found a simple cubic cell.
 ALAT       =     8.3230120000
  
  Lattice vectors:
  
 A1 = (   8.3230120000,   0.0000000000,   0.0000000000)
 A2 = (   0.0000000000,   8.3230120000,   0.0000000000)
 A3 = (   0.0000000000,   0.0000000000,   8.3230120000)


Analysis of symmetry for initial positions (statically):
=====================================================================
 Subroutine PRICEL returns following result:
 
  LATTYP: Found a face centered cubic cell.
 ALAT       =     4.1615060000
  
  Lattice vectors:
  
 A1 = (   2.0807530000,   2.0807530000,  -0.0000000000)
 A2 = (   2.0807530000,   0.0000000000,  -2.0807530000)
 A3 = (   0.0000000000,   2.0807530000,  -2.0807530000)
 
  32 primitive cells build up your supercell.
 

 Routine SETGRP: Setting up the symmetry group for a 
 simple cubic supercell.


 Subroutine GETGRP returns: Found 48 space group operations
 (whereof 48 operations were pure point group operations)
 out of a pool of 48 trial point group operations.


The static configuration has the point symmetry O_h .


Analysis of symmetry for dynamics (positions and initial velocities):
=====================================================================
 Subroutine PRICEL returns following result:
 
  LATTYP: Found a face centered cubic cell.
 ALAT       =     4.1615060000
  
  Lattice vectors:
  
 A1 = (   2.0807530000,   2.0807530000,  -0.0000000000)
 A2 = (   2.0807530000,   0.0000000000,  -2.0807530000)
 A3 = (   0.0000000000,   2.0807530000,  -2.0807530000)
 
  32 primitive cells build up your supercell.
 

 Routine SETGRP: Setting up the symmetry group for a 
 simple cubic supercell.


 Subroutine GETGRP returns: Found 48 space group operations
 (whereof 48 operations were pure point group operations)
 out of a pool of 48 trial point group operations.


The dynamic configuration has the point symmetry O_h .


 Subroutine INISYM returns: Found 48 space group operations
 (whereof 48 operations are pure point group operations),
 and found    32 'primitive' translations

 
 
 KPOINTS: k-points                                

Automatic generation of k-mesh.
Space group operators:
 irot       det(A)        alpha          n_x          n_y          n_z        tau_x        tau_y        tau_z
    1     1.000000     0.000000     1.000000     0.000000     0.000000     0.000000     0.000000     0.000000
    2    -1.000000     0.000000     1.000000     0.000000     0.000000     0.000000     0.000000     0.000000
    3     1.000000   120.000000    -0.577350    -0.577350    -0.577350     0.000000     0.000000     0.000000
    4    -1.000000   120.000000    -0.577350    -0.577350    -0.577350     0.000000     0.000000     0.000000
    5     1.000000   120.000000     0.577350     0.577350     0.577350     0.000000     0.000000     0.000000
    6    -1.000000   120.000000     0.577350     0.577350     0.577350     0.000000     0.000000     0.000000
    7     1.000000    90.000000     0.000000     0.000000    -1.000000     0.000000     0.000000     0.000000
    8    -1.000000    90.000000     0.000000     0.000000    -1.000000     0.000000     0.000000     0.000000
    9     1.000000   180.000000     0.000000     0.707107     0.707107     0.000000     0.000000     0.000000
   10    -1.000000   180.000000     0.000000     0.707107     0.707107     0.000000     0.000000     0.000000
   11     1.000000    90.000000     0.000000     1.000000     0.000000     0.000000     0.000000     0.000000
   12    -1.000000    90.000000     0.000000     1.000000     0.000000     0.000000     0.000000     0.000000
   13     1.000000   180.000000     0.000000     0.000000     1.000000     0.000000     0.000000     0.000000
   14    -1.000000   180.000000     0.000000     0.000000     1.000000     0.000000     0.000000     0.000000
   15     1.000000   120.000000    -0.577350     0.577350     0.577350     0.000000     0.000000     0.000000
   16    -1.000000   120.000000    -0.577350     0.577350     0.577350     0.000000     0.000000     0.000000
   17     1.000000   120.000000    -0.577350     0.577350    -0.577350     0.000000     0.000000     0.000000
   18    -1.000000   120.000000    -0.577350     0.577350    -0.577350     0.000000     0.000000     0.000000
   19     1.000000    90.000000     0.000000     0.000000     1.000000     0.000000     0.000000     0.000000
   20    -1.000000    90.000000     0.000000     0.000000     1.000000     0.000000     0.000000     0.000000
   21     1.000000    90.000000    -1.000000     0.000000     0.000000     0.000000     0.000000     0.000000
   22    -1.000000    90.000000    -1.000000     0.000000     0.000000     0.000000     0.000000     0.000000
   23     1.000000   180.000000     0.707107     0.000000     0.707107     0.000000     0.000000     0.000000
   24    -1.000000   180.000000     0.707107     0.000000     0.707107     0.000000     0.000000     0.000000
   25     1.000000   120.000000     0.577350    -0.577350     0.577350     0.000000     0.000000     0.000000
   26    -1.000000   120.000000     0.577350    -0.577350     0.577350     0.000000     0.000000     0.000000
   27     1.000000   120.000000    -0.577350    -0.577350     0.577350     0.000000     0.000000     0.000000
   28    -1.000000   120.000000    -0.577350    -0.577350     0.577350     0.000000     0.000000     0.000000
   29     1.000000   180.000000     1.000000     0.000000     0.000000     0.000000     0.000000     0.000000
   30    -1.000000   180.000000     1.000000     0.000000     0.000000     0.000000     0.000000     0.000000
   31     1.000000    90.000000     0.000000    -1.000000     0.000000     0.000000     0.000000     0.000000
   32    -1.000000    90.000000     0.000000    -1.000000     0.000000     0.000000     0.000000     0.000000
   33     1.000000   180.000000     0.707107     0.707107     0.000000     0.000000     0.000000     0.000000
   34    -1.000000   180.000000     0.707107     0.707107     0.000000     0.000000     0.000000     0.000000
   35     1.000000    90.000000     1.000000     0.000000     0.000000     0.000000     0.000000     0.000000
   36    -1.000000    90.000000     1.000000     0.000000     0.000000     0.000000     0.000000     0.000000
   37     1.000000   120.000000     0.577350    -0.577350    -0.577350     0.000000     0.000000     0.000000
   38    -1.000000   120.000000     0.577350    -0.577350    -0.577350     0.000000     0.000000     0.000000
   39     1.000000   180.000000     0.000000     1.000000     0.000000     0.000000     0.000000     0.000000
   40    -1.000000   180.000000     0.000000     1.000000     0.000000     0.000000     0.000000     0.000000
   41     1.000000   120.000000     0.577350     0.577350    -0.577350     0.000000     0.000000     0.000000
   42    -1.000000   120.000000     0.577350     0.577350    -0.577350     0.000000     0.000000     0.000000
   43     1.000000   180.000000     0.000000    -0.707107     0.707107     0.000000     0.000000     0.000000
   44    -1.000000   180.000000     0.000000    -0.707107     0.707107     0.000000     0.000000     0.000000
   45     1.000000   180.000000     0.707107    -0.707107     0.000000     0.000000     0.000000     0.000000
   46    -1.000000   180.000000     0.707107    -0.707107     0.000000     0.000000     0.000000     0.000000
   47     1.000000   180.000000     0.707107     0.000000    -0.707107     0.000000     0.000000     0.000000
   48    -1.000000   180.000000     0.707107     0.000000    -0.707107     0.000000     0.000000     0.000000
 
 Subroutine IBZKPT returns following result:
 ===========================================
 
 Found      4 irreducible k-points:
 
 Following reciprocal coordinates:
            Coordinates               Weight
  0.000000  0.000000  0.000000      1.000000
  0.333333  0.000000  0.000000      6.000000
  0.333333  0.333333  0.000000     12.000000
  0.333333  0.333333  0.333333      8.000000
 
 Following cartesian coordinates:
            Coordinates               Weight
  0.000000  0.000000  0.000000      1.000000
  0.333333  0.000000  0.000000      6.000000
  0.333333  0.333333  0.000000     12.000000
  0.333333  0.333333  0.333333      8.000000
 


--------------------------------------------------------------------------------------------------------




 Dimension of arrays:
   k-points           NKPTS =      4   k-points in BZ     NKDIM =      4   number of bands    NBANDS=    460
   number of dos      NEDOS =    301   number of ions     NIONS =     64
   non local maximal  LDIM  =     11   non local SUM 2l+1 LMDIM =     41
   total plane-waves  NPLWV = 125000
   max r-space proj   IRMAX =   2264   max aug-charges    IRDMAX=   4986
   dimension x,y,z NGX =    50 NGY =   50 NGZ =   50
   dimension x,y,z NGXF=   100 NGYF=  100 NGZF=  100
   support grid    NGXF=   100 NGYF=  100 NGZF=  100
   ions per type =              32  32
   NGX,Y,Z   is equivalent  to a cutoff of   9.99,  9.99,  9.99 a.u.
   NGXF,Y,Z  is equivalent  to a cutoff of  19.97, 19.97, 19.97 a.u.

 SYSTEM =  NiO                                     
 POSCAR =  NiO                                     

 Startparameter for this run:
   NWRITE =      2    write-flag & timer
   PREC   = normal    normal or accurate (medium, high low for compatibility)
   ISTART =      0    job   : 0-new  1-cont  2-samecut
   ICHARG =      0    charge: 1-file 2-atom 10-const
   ISPIN  =      1    spin polarized calculation?
   LNONCOLLINEAR =      F non collinear calculations
   LSORBIT =      F    spin-orbit coupling
   INIWAV =      1    electr: 0-lowe 1-rand  2-diag
   LASPH  =      F    aspherical Exc in radial PAW
   METAGGA=      F    non-selfconsistent MetaGGA calc.

 Electronic Relaxation 1
   ENCUT  =  600.0 eV  44.10 Ry    6.64 a.u.  16.62 16.62 16.62*2*pi/ulx,y,z
   ENINI  =  600.0     initial cutoff
   ENAUG  = 1200.0 eV  augmentation charge cutoff
   NELM   =    100;   NELMIN=  2; NELMDL= -5     # of ELM steps 
   EDIFF  = 0.1E-05   stopping-criterion for ELM
   LREAL  =      T    real-space projection
   NLSPLINE    = F    spline interpolate recip. space projectors
   LCOMPAT=      F    compatible to vasp.4.4
   GGA_COMPAT  = T    GGA compatible to vasp.4.4-vasp.4.6
   LMAXPAW     = -100 max onsite density
   LMAXMIX     =    4 max onsite mixed and CHGCAR
   VOSKOWN=      0    Vosko Wilk Nusair interpolation
   ROPT   =   -0.00050  -0.00050
 Ionic relaxation
   EDIFFG = -.1E-03   stopping-criterion for IOM
   NSW    =      0    number of steps for IOM
   NBLOCK =      1;   KBLOCK =      1    inner block; outer block 
   IBRION =     -1    ionic relax: 0-MD 1-quasi-New 2-CG
   NFREE  =      1    steps in history (QN), initial steepest desc. (CG)
   ISIF   =      2    stress and relaxation
   IWAVPR =     10    prediction:  0-non 1-charg 2-wave 3-comb
   ISYM   =      2    0-nonsym 1-usesym 2-fastsym
   LCORR  =      T    Harris-Foulkes like correction to forces

   POTIM  = 0.2000    time-step for ionic-motion
   TEIN   =    0.0    initial temperature
   TEBEG  =    0.0;   TEEND  =   0.0 temperature during run
   SMASS  =  -3.00    Nose mass-parameter (am)
   estimated Nose-frequenzy (Omega)   =  0.10E-29 period in steps =****** mass=  -0.158E-26a.u.
   SCALEE = 1.0000    scale energy and forces
   NPACO  =    256;   APACO  = 16.0  distance and # of slots for P.C.
   PSTRESS=    0.0 pullay stress

  Mass of Ions in am
   POMASS =  58.69 16.00
  Ionic Valenz
   ZVAL   =  18.00  6.00
  Atomic Wigner-Seitz radii
   RWIGS  =  -1.00 -1.00
  virtual crystal weights 
   VCA    =   1.00  1.00
   NELECT =     768.0000    total number of electrons
   NUPDOWN=      -1.0000    fix difference up-down

 DOS related values:
   EMIN   =  10.00;   EMAX   =-10.00  energy-range for DOS
   EFERMI =   0.00
   ISMEAR =     0;   SIGMA  =   0.00  broadening in eV -4-tet -1-fermi 0-gaus

 Electronic relaxation 2 (details)
   IALGO  =     38    algorithm
   LDIAG  =      T    sub-space diagonalisation (order eigenvalues)
   LSUBROT=      F    optimize rotation matrix (better conditioning)
   TURBO    =      0    0=normal 1=particle mesh
   IRESTART =      0    0=no restart 2=restart with 2 vectors
   NREBOOT  =      0    no. of reboots
   NMIN     =      0    reboot dimension
   EREF     =   0.00    reference energy to select bands
   IMIX   =      4    mixing-type and parameters
     AMIX     =   0.40;   BMIX     =  1.00
     AMIX_MAG =   1.60;   BMIX_MAG =  1.00
     AMIN     =   0.10
     WC   =   100.;   INIMIX=   1;  MIXPRE=   1;  MAXMIX= -45

 Intra band minimization:
   WEIMIN = 0.0000     energy-eigenvalue tresh-hold
   EBREAK =  0.54E-09  absolut break condition
   DEPER  =   0.30     relativ break condition  

   TIME   =   0.40     timestep for ELM

  volume/ion in A,a.u.               =       9.01        60.79
  Fermi-wavevector in a.u.,A,eV,Ry     =   1.801281  3.403927 44.145626  3.244612
  Thomas-Fermi vector in A             =   2.861835
 
 Write flags
   LWAVE        =      T    write WAVECAR
   LDOWNSAMPLE  =      F    k-point downsampling of WAVECAR
   LCHARG       =      T    write CHGCAR
   LVTOT        =      F    write LOCPOT, total local potential
   LVHAR        =      F    write LOCPOT, Hartree potential only
   LELF         =      F    write electronic localiz. function (ELF)
   LORBIT       =      0    0 simple, 1 ext, 2 COOP (PROOUT), +10 PAW based schemes


 Dipole corrections
   LMONO  =      F    monopole corrections only (constant potential shift)
   LDIPOL =      F    correct potential (dipole corrections)
   IDIPOL =      0    1-x, 2-y, 3-z, 4-all directions 
   EPSILON=  1.0000000 bulk dielectric constant

 Exchange correlation treatment:
   GGA     =    --    GGA type
   LEXCH   =     8    internal setting for exchange type
   VOSKOWN=      0    Vosko Wilk Nusair interpolation
   LHFCALC =     F    Hartree Fock is set to
   LHFONE  =     F    Hartree Fock one center treatment
   AEXX    =    0.0000 exact exchange contribution

 Linear response parameters
   LEPSILON=     F    determine dielectric tensor
   LRPA    =     F    only Hartree local field effects (RPA)
   LNABLA  =     F    use nabla operator in PAW spheres
   LVEL    =     F    velocity operator in full k-point grid
   LINTERFAST=   F  fast interpolation
   KINTER  =     0    interpolate to denser k-point grid
   CSHIFT  =0.1000    complex shift for real part using Kramers Kronig
   OMEGAMAX=  -1.0    maximum frequency
   DEG_THRESHOLD= 0.2000000E-02 threshold for treating states as degnerate
   RTIME   =   -0.100 relaxation time in fs
  (WPLASMAI=    0.000 imaginary part of plasma frequency in eV, 0.658/RTIME)
   DFIELD  = 0.0000000 0.0000000 0.0000000 field for delta impulse in time
 
 Orbital magnetization related:
   ORBITALMAG=     F  switch on orbital magnetization
   LCHIMAG   =     F  perturbation theory with respect to B field
   DQ        =  0.001000  dq finite difference perturbation B field
   LLRAUG    =     F  two centre corrections for induced B field



--------------------------------------------------------------------------------------------------------


 Static calculation
 charge density and potential will be updated during run
 non-spin polarized calculation
 Variant of blocked Davidson
 Davidson routine will perform the subspace rotation
 perform sub-space diagonalisation
    after iterative eigenvector-optimisation
 modified Broyden-mixing scheme, WC =      100.0
 initial mixing is a Kerker type mixing with AMIX =  0.4000 and BMIX =      1.0000
 Hartree-type preconditioning will be used
 using additional bands           76
 real space projection scheme for non local part
 use partial core corrections
 calculate Harris-corrections to forces 
   (improved forces if not selfconsistent)
 use gradient corrections 
 use of overlap-Matrix (Vanderbilt PP)
 Gauss-broadening in eV      SIGMA  =   0.00


--------------------------------------------------------------------------------------------------------


  energy-cutoff  :      600.00
  volume of cell :      576.56
      direct lattice vectors                 reciprocal lattice vectors
     8.323012000  0.000000000  0.000000000     0.120148812  0.000000000  0.000000000
     0.000000000  8.323012000  0.000000000     0.000000000  0.120148812  0.000000000
     0.000000000  0.000000000  8.323012000     0.000000000  0.000000000  0.120148812

  length of vectors
     8.323012000  8.323012000  8.323012000     0.120148812  0.120148812  0.120148812


 
 k-points in units of 2pi/SCALE and weight: k-points                                
   0.00000000  0.00000000  0.00000000       0.037
   0.33333333  0.00000000  0.00000000       0.222
   0.33333333  0.33333333  0.00000000       0.444
   0.33333333  0.33333333  0.33333333       0.296
 
 k-points in reciprocal lattice and weights: k-points                                
   0.00000000  0.00000000  0.00000000       0.037
   0.33333333  0.00000000  0.00000000       0.222
   0.33333333  0.33333333  0.00000000       0.444
   0.33333333  0.33333333  0.33333333       0.296
 
 position of ions in fractional coordinates (direct lattice) 
   0.00000000  0.00000000  0.00000000
   0.00000000  0.00000000  0.50000000
   0.00000000  0.50000000  0.00000000
   0.00000000  0.50000000  0.50000000
   0.50000000  0.00000000  0.00000000
   0.50000000  0.00000000  0.50000000
   0.50000000  0.50000000  0.00000000
   0.50000000  0.50000000  0.50000000
   0.00000000  0.25000000  0.25000000
   0.00000000  0.25000000  0.75000000
   0.00000000  0.75000000  0.25000000
   0.00000000  0.75000000  0.75000000
   0.50000000  0.25000000  0.25000000
   0.50000000  0.25000000  0.75000000
   0.50000000  0.75000000  0.25000000
   0.50000000  0.75000000  0.75000000
   0.25000000  0.00000000  0.25000000
   0.25000000  0.00000000  0.75000000
   0.25000000  0.50000000  0.25000000
   0.25000000  0.50000000  0.75000000
   0.75000000  0.00000000  0.25000000
   0.75000000  0.00000000  0.75000000
   0.75000000  0.50000000  0.25000000
   0.75000000  0.50000000  0.75000000
   0.25000000  0.25000000  0.00000000
   0.25000000  0.25000000  0.50000000
   0.25000000  0.75000000  0.00000000
   0.25000000  0.75000000  0.50000000
   0.75000000  0.25000000  0.00000000
   0.75000000  0.25000000  0.50000000
   0.75000000  0.75000000  0.00000000
   0.75000000  0.75000000  0.50000000
   0.25000000  0.00000000  0.00000000
   0.25000000  0.00000000  0.50000000
   0.25000000  0.50000000  0.00000000
   0.25000000  0.50000000  0.50000000
   0.75000000  0.00000000  0.00000000
   0.75000000  0.00000000  0.50000000
   0.75000000  0.50000000  0.00000000
   0.75000000  0.50000000  0.50000000
   0.25000000  0.25000000  0.25000000
   0.25000000  0.25000000  0.75000000
   0.25000000  0.75000000  0.25000000
   0.25000000  0.75000000  0.75000000
   0.75000000  0.25000000  0.25000000
   0.75000000  0.25000000  0.75000000
   0.75000000  0.75000000  0.25000000
   0.75000000  0.75000000  0.75000000
   0.00000000  0.00000000  0.25000000
   0.00000000  0.00000000  0.75000000
   0.00000000  0.50000000  0.25000000
   0.00000000  0.50000000  0.75000000
   0.50000000  0.00000000  0.25000000
   0.50000000  0.00000000  0.75000000
   0.50000000  0.50000000  0.25000000
   0.50000000  0.50000000  0.75000000
   0.00000000  0.25000000  0.00000000
   0.00000000  0.25000000  0.50000000
   0.00000000  0.75000000  0.00000000
   0.00000000  0.75000000  0.50000000
   0.50000000  0.25000000  0.00000000
   0.50000000  0.25000000  0.50000000
   0.50000000  0.75000000  0.00000000
   0.50000000  0.75000000  0.50000000
 
 position of ions in cartesian coordinates  (Angst):
   0.00000000  0.00000000  0.00000000
   0.00000000  0.00000000  4.16150600
   0.00000000  4.16150600  0.00000000
   0.00000000  4.16150600  4.16150600
   4.16150600  0.00000000  0.00000000
   4.16150600  0.00000000  4.16150600
   4.16150600  4.16150600  0.00000000
   4.16150600  4.16150600  4.16150600
   0.00000000  2.08075300  2.08075300
   0.00000000  2.08075300  6.24225900
   0.00000000  6.24225900  2.08075300
   0.00000000  6.24225900  6.24225900
   4.16150600  2.08075300  2.08075300
   4.16150600  2.08075300  6.24225900
   4.16150600  6.24225900  2.08075300
   4.16150600  6.24225900  6.24225900
   2.08075300  0.00000000  2.08075300
   2.08075300  0.00000000  6.24225900
   2.08075300  4.16150600  2.08075300
   2.08075300  4.16150600  6.24225900
   6.24225900  0.00000000  2.08075300
   6.24225900  0.00000000  6.24225900
   6.24225900  4.16150600  2.08075300
   6.24225900  4.16150600  6.24225900
   2.08075300  2.08075300  0.00000000
   2.08075300  2.08075300  4.16150600
   2.08075300  6.24225900  0.00000000
   2.08075300  6.24225900  4.16150600
   6.24225900  2.08075300  0.00000000
   6.24225900  2.08075300  4.16150600
   6.24225900  6.24225900  0.00000000
   6.24225900  6.24225900  4.16150600
   2.08075300  0.00000000  0.00000000
   2.08075300  0.00000000  4.16150600
   2.08075300  4.16150600  0.00000000
   2.08075300  4.16150600  4.16150600
   6.24225900  0.00000000  0.00000000
   6.24225900  0.00000000  4.16150600
   6.24225900  4.16150600  0.00000000
   6.24225900  4.16150600  4.16150600
   2.08075300  2.08075300  2.08075300
   2.08075300  2.08075300  6.24225900
   2.08075300  6.24225900  2.08075300
   2.08075300  6.24225900  6.24225900
   6.24225900  2.08075300  2.08075300
   6.24225900  2.08075300  6.24225900
   6.24225900  6.24225900  2.08075300
   6.24225900  6.24225900  6.24225900
   0.00000000  0.00000000  2.08075300
   0.00000000  0.00000000  6.24225900
   0.00000000  4.16150600  2.08075300
   0.00000000  4.16150600  6.24225900
   4.16150600  0.00000000  2.08075300
   4.16150600  0.00000000  6.24225900
   4.16150600  4.16150600  2.08075300
   4.16150600  4.16150600  6.24225900
   0.00000000  2.08075300  0.00000000
   0.00000000  2.08075300  4.16150600
   0.00000000  6.24225900  0.00000000
   0.00000000  6.24225900  4.16150600
   4.16150600  2.08075300  0.00000000
   4.16150600  2.08075300  4.16150600
   4.16150600  6.24225900  0.00000000
   4.16150600  6.24225900  4.16150600
 


--------------------------------------------------------------------------------------------------------


 k-point  1 :   0.0000 0.0000 0.0000  plane waves:   19309
 k-point  2 :   0.3333 0.0000 0.0000  plane waves:   19245
 k-point  3 :   0.3333 0.3333 0.0000  plane waves:   19262
 k-point  4 :   0.3333 0.3333 0.3333  plane waves:   19255

 maximum and minimum number of plane-waves per node :     19309    19245

 maximum number of plane-waves:     19309
 maximum index in each direction: 
   IXMAX=   16   IYMAX=   16   IZMAX=   16
   IXMIN=  -16   IYMIN=  -16   IZMIN=  -16


 serial   3D FFT for wavefunctions
 parallel 3D FFT for charge:
    minimum data exchange during FFTs selected (reduces bandwidth)


 total amount of memory used by VASP MPI-rank0   797650. kBytes
=======================================================================

   base      :      30000. kBytes
   nonlr-proj:      38118. kBytes
   fftplans  :      34720. kBytes
   grid      :      61840. kBytes
   one-center:       5164. kBytes
   wavefun   :     627808. kBytes
 
     INWAV:  cpu time    0.0001: real time    0.0000
 Broyden mixing: mesh for mixing (old mesh)
   NGX = 33   NGY = 33   NGZ = 33
  (NGX  =100   NGY  =100   NGZ  =100)
  gives a total of  35937 points

 charge density for first step will be calculated from the start-wavefunctions


--------------------------------------------------------------------------------------------------------


 Maximum index for non-local projection operator         2176
 Maximum index for augmentation-charges         4697 (set IRDMAX)


--------------------------------------------------------------------------------------------------------


 initial charge from wavefunction
 First call to EWALD:  gamma=   0.213
 Maximum number of real-space cells 3x 3x 3
 Maximum number of reciprocal cells 3x 3x 3

    FEWALD:  cpu time    0.0158: real time    0.0158


----------------------------------------- Iteration    1(   1)  ---------------------------------------


    POTLOK:  cpu time    0.5748: real time    0.5745
    SETDIJ:  cpu time    0.2238: real time    0.2237
     EDDAV:  cpu time    5.4120: real time    5.4124
       DOS:  cpu time    0.0003: real time    0.0003
    --------------------------------------------
      LOOP:  cpu time    6.2136: real time    6.2136

 eigenvalue-minimisations  :  4336
 total energy-change (2. order) : 0.2232072E+05  (-0.3868961E+05)
 number of electron     768.0002347 magnetization 
 augmentation part      186.3041772 magnetization 

 Free energy of the ion-electron system (eV)
  ---------------------------------------------------
  alpha Z        PSCENC =      5503.57107827
  Ewald energy   TEWEN  =   -104412.32727402
  -Hartree energ DENC   =     -9226.16149210
  -exchange      EXHF   =         0.00000000
  -V(xc)+E(xc)   XCENC  =      3577.59820260
  PAW double counting   =    666313.97606979  -672127.69363475
  entropy T*S    EENTRO =         0.00000000
  eigenvalues    EBANDS =    -29713.86364634
  atomic energy  EATOM  =    162405.62235658
  Solvation  Ediel_sol  =         0.00000000
  ---------------------------------------------------
  free energy    TOTEN  =     22320.72166002 eV

  energy without entropy =    22320.72166002  energy(sigma->0) =    22320.72166002


--------------------------------------------------------------------------------------------------------




----------------------------------------- Iteration    1(   2)  ---------------------------------------


     EDDAV:  cpu time    5.2025: real time    5.2092
       DOS:  cpu time    0.0017: real time    0.0017
    --------------------------------------------
      LOOP:  cpu time    5.2047: real time    5.2113

 eigenvalue-minimisations  :  4176
 total energy-change (2. order) :-0.3659833E+05  (-0.3287274E+05)
 number of electron     768.0002347 magnetization 
 augmentation part      186.3041772 magnetization 

 Free energy of the ion-electron system (eV)
  ---------------------------------------------------
  alpha Z        PSCENC =      5503.57107827
  Ewald energy   TEWEN  =   -104412.32727402
  -Hartree energ DENC   =     -9226.16149210
  -exchange      EXHF   =         0.00000000
  -V(xc)+E(xc)   XCENC  =      3577.59820260
  PAW double counting   =    666313.97606979  -672127.69363475
  entropy T*S    EENTRO =        -0.00025075
  eigenvalues    EBANDS =    -66312.19342511
  atomic energy  EATOM  =    162405.62235658
  Solvation  Ediel_sol  =         0.00000000
  ---------------------------------------------------
  free energy    TOTEN  =    -14277.60836949 eV

  energy without entropy =   -14277.60811874  energy(sigma->0) =   -14277.60824412


--------------------------------------------------------------------------------------------------------




----------------------------------------- Iteration    1(   3)  ---------------------------------------


     EDDAV:  cpu time    5.8437: real time    5.8500
       DOS:  cpu time    0.0024: real time    0.0024
    --------------------------------------------
      LOOP:  cpu time    5.8466: real time    5.8529

 eigenvalue-minimisations  :  5088
 total energy-change (2. order) :-0.1024538E+05  (-0.9946318E+04)
 number of electron     768.0002347 magnetization 
 augmentation part      186.3041772 magnetization 

 Free energy of the ion-electron system (eV)
  ---------------------------------------------------
  alpha Z        PSCENC =      5503.57107827
  Ewald energy   TEWEN  =   -104412.32727402
  -Hartree energ DENC   =     -9226.16149210
  -exchange      EXHF   =         0.00000000
  -V(xc)+E(xc)   XCENC  =      3577.59820260
  PAW double counting   =    666313.97606979  -672127.69363475
  entropy T*S    EENTRO =        -0.00019974
  eigenvalues    EBANDS =    -76557.57361760
  atomic energy  EATOM  =    162405.62235658
  Solvation  Ediel_sol  =         0.00000000
  ---------------------------------------------------
  free energy    TOTEN  =    -24522.98851097 eV

  energy without entropy =   -24522.98831124  energy(sigma->0) =   -24522.98841110


--------------------------------------------------------------------------------------------------------




----------------------------------------- Iteration    1(   4)  ---------------------------------------


     EDDAV:  cpu time    5.9250: real time    5.9303
       DOS:  cpu time    0.0022: real time    0.0022
    --------------------------------------------
      LOOP:  cpu time    5.9277: real time    5.9329

 eigenvalue-minimisations  :  5344
 total energy-change (2. order) :-0.1729829E+04  (-0.1632734E+04)
 number of electron     768.0002347 magnetization 
 augmentation part      186.3041772 magnetization 

 Free energy of the ion-electron system (eV)
  ---------------------------------------------------
  alpha Z        PSCENC =      5503.57107827
  Ewald energy   TEWEN  =   -104412.32727402
  -Hartree energ DENC   =     -9226.16149210
  -exchange      EXHF   =         0.00000000
  -V(xc)+E(xc)   XCENC  =      3577.59820260
  PAW double counting   =    666313.97606979  -672127.69363475
  entropy T*S    EENTRO =        -0.00007852
  eigenvalues    EBANDS =    -78287.40322000
  atomic energy  EATOM  =    162405.62235658
  Solvation  Ediel_sol  =         0.00000000
  ---------------------------------------------------
  free energy    TOTEN  =    -26252.81799216 eV

  energy without entropy =   -26252.81791364  energy(sigma->0) =   -26252.81795290


--------------------------------------------------------------------------------------------------------




----------------------------------------- Iteration    1(   5)  ---------------------------------------


     EDDAV:  cpu time    6.0332: real time    6.0328
       DOS:  cpu time    0.0024: real time    0.0024
    CHARGE:  cpu time    1.5834: real time    1.5831
    MIXING:  cpu time    0.0146: real time    0.0146
    --------------------------------------------
      LOOP:  cpu time    7.6341: real time    7.6334

 eigenvalue-minimisations  :  5488
 total energy-change (2. order) :-0.2039810E+03  (-0.1864552E+03)
 number of electron     768.0007070 magnetization 
 augmentation part      497.1854551 magnetization 

 Broyden mixing:
  rms(total) = 0.11599E+03    rms(broyden)= 0.11599E+03
  rms(prec ) = 0.13502E+03
  weight for this iteration     100.00

 Free energy of the ion-electron system (eV)
  ---------------------------------------------------
  alpha Z        PSCENC =      5503.57107827
  Ewald energy   TEWEN  =   -104412.32727402
  -Hartree energ DENC   =     -9226.16149210
  -exchange      EXHF   =         0.00000000
  -V(xc)+E(xc)   XCENC  =      3577.59820260
  PAW double counting   =    666313.97606979  -672127.69363475
  entropy T*S    EENTRO =        -0.00020347
  eigenvalues    EBANDS =    -78491.38407547
  atomic energy  EATOM  =    162405.62235658
  Solvation  Ediel_sol  =         0.00000000
  ---------------------------------------------------
  free energy    TOTEN  =    -26456.79897258 eV

  energy without entropy =   -26456.79876911  energy(sigma->0) =   -26456.79887084


--------------------------------------------------------------------------------------------------------




----------------------------------------- Iteration    1(   6)  ---------------------------------------


    POTLOK:  cpu time    0.4303: real time    0.4303
    SETDIJ:  cpu time    0.1703: real time    0.1702
     EDDAV:  cpu time    5.5708: real time    5.5696
       DOS:  cpu time    0.0028: real time    0.0028
    CHARGE:  cpu time    1.5734: real time    1.5733
    MIXING:  cpu time    0.0157: real time    0.0157
    --------------------------------------------
      LOOP:  cpu time    7.7638: real time    7.7625

 eigenvalue-minimisations  :  4928
 total energy-change (2. order) : 0.2232117E+05  (-0.3047267E+04)
 number of electron     768.0005638 magnetization 
 augmentation part      400.9814534 magnetization 

 Broyden mixing:
  rms(total) = 0.74539E+02    rms(broyden)= 0.74539E+02
  rms(prec ) = 0.82036E+02
  weight for this iteration     100.00

 eigenvalues of (default mixing * dielectric matrix)
  average eigenvalue GAMMA=   2.0734
  2.0734

 Free energy of the ion-electron system (eV)
  ---------------------------------------------------
  alpha Z        PSCENC =      5503.57107827
  Ewald energy   TEWEN  =   -104412.32727402
  -Hartree energ DENC   =    -27828.74542722
  -exchange      EXHF   =         0.00000000
  -V(xc)+E(xc)   XCENC  =      4372.20026830
  PAW double counting   =    411248.32573831  -423330.22770976
  entropy T*S    EENTRO =        -0.00047330
  eigenvalues    EBANDS =    -32094.04898128
  atomic energy  EATOM  =    162405.62235658
  Solvation  Ediel_sol  =         0.00000000
  ---------------------------------------------------
  free energy    TOTEN  =     -4135.63042413 eV

  energy without entropy =    -4135.62995082  energy(sigma->0) =    -4135.63018748


--------------------------------------------------------------------------------------------------------




----------------------------------------- Iteration    1(   7)  ---------------------------------------


    POTLOK:  cpu time    0.4392: real time    0.4390
    SETDIJ:  cpu time    0.1706: real time    0.1706
     EDDAV:  cpu time    6.2565: real time    6.2555
       DOS:  cpu time    0.0029: real time    0.0029
    CHARGE:  cpu time    1.5701: real time    1.5698
    MIXING:  cpu time    0.0168: real time    0.0168
    --------------------------------------------
      LOOP:  cpu time    8.4565: real time    8.4551

 eigenvalue-minimisations  :  5704
 total energy-change (2. order) :-0.2509865E+03  (-0.4804585E+04)
 number of electron     768.0002941 magnetization 
 augmentation part      162.2425032 magnetization 

 Broyden mixing:
  rms(total) = 0.45195E+02    rms(broyden)= 0.45195E+02
  rms(prec ) = 0.59423E+02
  weight for this iteration     100.00

 eigenvalues of (default mixing * dielectric matrix)
  average eigenvalue GAMMA=   1.3714
  1.3714  1.3714

 Free energy of the ion-electron system (eV)
  ---------------------------------------------------
  alpha Z        PSCENC =      5503.57107827
  Ewald energy   TEWEN  =   -104412.32727402
  -Hartree energ DENC   =    -56613.84234369
  -exchange      EXHF   =         0.00000000
  -V(xc)+E(xc)   XCENC  =      5473.31273680
  PAW double counting   =    195401.87516845  -206384.01126752
  entropy T*S    EENTRO =        -0.00013316
  eigenvalues    EBANDS =     -5760.81728463
  atomic energy  EATOM  =    162405.62235658
  Solvation  Ediel_sol  =         0.00000000
  ---------------------------------------------------
  free energy    TOTEN  =     -4386.61696291 eV

  energy without entropy =    -4386.61682975  energy(sigma->0) =    -4386.61689633


--------------------------------------------------------------------------------------------------------




----------------------------------------- Iteration    1(   8)  ---------------------------------------


    POTLOK:  cpu time    0.4231: real time    0.4231
    SETDIJ:  cpu time    0.1713: real time    0.1713
     EDDAV:  cpu time    5.7774: real time    5.7763
       DOS:  cpu time    0.0028: real time    0.0028
    CHARGE:  cpu time    1.5713: real time    1.5711
    MIXING:  cpu time    0.0190: real time    0.0189
    --------------------------------------------
      LOOP:  cpu time    7.9654: real time    7.9639

 eigenvalue-minimisations  :  5232
 total energy-change (2. order) : 0.2801243E+04  (-0.3465364E+04)
 number of electron     768.0005582 magnetization 
 augmentation part      410.5748935 magnetization 

 Broyden mixing:
  rms(total) = 0.47506E+02    rms(broyden)= 0.47505E+02
  rms(prec ) = 0.55203E+02
  weight for this iteration     100.00

 eigenvalues of (default mixing * dielectric matrix)
  average eigenvalue GAMMA=   1.2802
  1.6732  1.6732  0.4941

 Free energy of the ion-electron system (eV)
  ---------------------------------------------------
  alpha Z        PSCENC =      5503.57107827
  Ewald energy   TEWEN  =   -104412.32727402
  -Hartree energ DENC   =    -33876.83898426
  -exchange      EXHF   =         0.00000000
  -V(xc)+E(xc)   XCENC  =      4647.72351794
  PAW double counting   =    232441.44125210  -240030.33572541
  entropy T*S    EENTRO =        -0.00013501
  eigenvalues    EBANDS =    -28264.23040023
  atomic energy  EATOM  =    162405.62235658
  Solvation  Ediel_sol  =         0.00000000
  ---------------------------------------------------
  free energy    TOTEN  =     -1585.37431404 eV

  energy without entropy =    -1585.37417903  energy(sigma->0) =    -1585.37424653


--------------------------------------------------------------------------------------------------------




----------------------------------------- Iteration    1(   9)  ---------------------------------------


    POTLOK:  cpu time    0.4279: real time    0.4279
    SETDIJ:  cpu time    0.1700: real time    0.1700
     EDDAV:  cpu time    6.1025: real time    6.1040
       DOS:  cpu time    0.0027: real time    0.0027
    CHARGE:  cpu time    1.5738: real time    1.5737
    MIXING:  cpu time    0.0196: real time    0.0195
    --------------------------------------------
      LOOP:  cpu time    8.2970: real time    8.2984

 eigenvalue-minimisations  :  5592
 total energy-change (2. order) : 0.6988277E+03  (-0.1556280E+04)
 number of electron     768.0004482 magnetization 
 augmentation part      349.9708445 magnetization 

 Broyden mixing:
  rms(total) = 0.23829E+02    rms(broyden)= 0.23828E+02
  rms(prec ) = 0.30017E+02
  weight for this iteration     100.00

 eigenvalues of (default mixing * dielectric matrix)
  average eigenvalue GAMMA=   1.2695
  1.9151  1.9151  0.6240  0.6240

 Free energy of the ion-electron system (eV)
  ---------------------------------------------------
  alpha Z        PSCENC =      5503.57107827
  Ewald energy   TEWEN  =   -104412.32727402
  -Hartree energ DENC   =    -40588.53998519
  -exchange      EXHF   =         0.00000000
  -V(xc)+E(xc)   XCENC  =      4910.17051252
  PAW double counting   =    171281.96819143  -179156.37307245
  entropy T*S    EENTRO =        -0.00022854
  eigenvalues    EBANDS =    -20830.63815707
  atomic energy  EATOM  =    162405.62235658
  Solvation  Ediel_sol  =         0.00000000
  ---------------------------------------------------
  free energy    TOTEN  =      -886.54657847 eV

  energy without entropy =     -886.54634993  energy(sigma->0) =     -886.54646420


--------------------------------------------------------------------------------------------------------




----------------------------------------- Iteration    1(  10)  ---------------------------------------


    POTLOK:  cpu time    0.4234: real time    0.4232
    SETDIJ:  cpu time    0.1701: real time    0.1701
     EDDAV:  cpu time    6.7996: real time    6.8041
       DOS:  cpu time    0.0023: real time    0.0023
    CHARGE:  cpu time    1.5703: real time    1.5702
    MIXING:  cpu time    0.0230: real time    0.0230
    --------------------------------------------
      LOOP:  cpu time    8.9892: real time    8.9933

 eigenvalue-minimisations  :  6600
 total energy-change (2. order) :-0.5723252E+03  (-0.4408296E+03)
 number of electron     768.0004883 magnetization 
 augmentation part      384.5878572 magnetization 

 Broyden mixing:
  rms(total) = 0.33814E+02    rms(broyden)= 0.33814E+02
  rms(prec ) = 0.40446E+02
  weight for this iteration     100.00

 eigenvalues of (default mixing * dielectric matrix)
  average eigenvalue GAMMA=   1.2078
  2.0667  2.0667  0.7300  0.7300  0.4454

 Free energy of the ion-electron system (eV)
  ---------------------------------------------------
  alpha Z        PSCENC =      5503.57107827
  Ewald energy   TEWEN  =   -104412.32727402
  -Hartree energ DENC   =    -39047.24066302
  -exchange      EXHF   =         0.00000000
  -V(xc)+E(xc)   XCENC  =      4816.35517830
  PAW double counting   =    176931.96425101  -183761.95294485
  entropy T*S    EENTRO =        -0.00000075
  eigenvalues    EBANDS =    -23894.86375677
  atomic energy  EATOM  =    162405.62235658
  Solvation  Ediel_sol  =         0.00000000
  ---------------------------------------------------
  free energy    TOTEN  =     -1458.87177524 eV

  energy without entropy =    -1458.87177449  energy(sigma->0) =    -1458.87177487


--------------------------------------------------------------------------------------------------------




----------------------------------------- Iteration    1(  11)  ---------------------------------------


    POTLOK:  cpu time    0.4275: real time    0.4273
    SETDIJ:  cpu time    0.1704: real time    0.1704
     EDDAV:  cpu time    6.1975: real time    6.2007
       DOS:  cpu time    0.0029: real time    0.0029
    CHARGE:  cpu time    1.5563: real time    1.5562
    MIXING:  cpu time    0.0226: real time    0.0227
    --------------------------------------------
      LOOP:  cpu time    8.3779: real time    8.3807

 eigenvalue-minimisations  :  5464
 total energy-change (2. order) : 0.7861868E+03  (-0.8655268E+02)
 number of electron     768.0004404 magnetization 
 augmentation part      357.6169117 magnetization 

 Broyden mixing:
  rms(total) = 0.21430E+02    rms(broyden)= 0.21430E+02
  rms(prec ) = 0.25277E+02
  weight for this iteration     100.00

 eigenvalues of (default mixing * dielectric matrix)
  average eigenvalue GAMMA=   1.3055
  2.9139  1.7374  0.9387  0.9387  0.6522  0.6522

 Free energy of the ion-electron system (eV)
  ---------------------------------------------------
  alpha Z        PSCENC =      5503.57107827
  Ewald energy   TEWEN  =   -104412.32727402
  -Hartree energ DENC   =    -43021.02633914
  -exchange      EXHF   =         0.00000000
  -V(xc)+E(xc)   XCENC  =      4954.20762298
  PAW double counting   =    159066.25945130  -165309.00115749
  entropy T*S    EENTRO =        -0.00032959
  eigenvalues    EBANDS =    -19859.99042825
  atomic energy  EATOM  =    162405.62235658
  Solvation  Ediel_sol  =         0.00000000
  ---------------------------------------------------
  free energy    TOTEN  =      -672.68501936 eV

  energy without entropy =     -672.68468977  energy(sigma->0) =     -672.68485457


--------------------------------------------------------------------------------------------------------




----------------------------------------- Iteration    1(  12)  ---------------------------------------


    POTLOK:  cpu time    0.4052: real time    0.4050
    SETDIJ:  cpu time    0.1702: real time    0.1702
     EDDAV:  cpu time    6.3192: real time    6.3181
       DOS:  cpu time    0.0029: real time    0.0029
    CHARGE:  cpu time    1.5519: real time    1.5516
    MIXING:  cpu time    0.0275: real time    0.0275
    --------------------------------------------
      LOOP:  cpu time    8.4775: real time    8.4759

 eigenvalue-minimisations  :  5880
 total energy-change (2. order) : 0.2554608E+03  (-0.6102686E+02)
 number of electron     768.0003464 magnetization 
 augmentation part      321.8542566 magnetization 

 Broyden mixing:
  rms(total) = 0.80135E+01    rms(broyden)= 0.80100E+01
  rms(prec ) = 0.86995E+01
  weight for this iteration     100.00

 eigenvalues of (default mixing * dielectric matrix)
  average eigenvalue GAMMA=   1.1987
  3.0846  1.6299  0.9897  0.9897  0.6687  0.6687  0.3598

 Free energy of the ion-electron system (eV)
  ---------------------------------------------------
  alpha Z        PSCENC =      5503.57107827
  Ewald energy   TEWEN  =   -104412.32727402
  -Hartree energ DENC   =    -46338.18143535
  -exchange      EXHF   =         0.00000000
  -V(xc)+E(xc)   XCENC  =      5077.69386227
  PAW double counting   =    148240.50479681  -154121.56747941
  entropy T*S    EENTRO =        -0.00040710
  eigenvalues    EBANDS =    -16772.53973172
  atomic energy  EATOM  =    162405.62235658
  Solvation  Ediel_sol  =         0.00000000
  ---------------------------------------------------
  free energy    TOTEN  =      -417.22423367 eV

  energy without entropy =     -417.22382657  energy(sigma->0) =     -417.22403012


--------------------------------------------------------------------------------------------------------




----------------------------------------- Iteration    1(  13)  ---------------------------------------


    POTLOK:  cpu time    0.4201: real time    0.4202
    SETDIJ:  cpu time    0.1702: real time    0.1703
     EDDAV:  cpu time    7.2888: real time    7.2874
       DOS:  cpu time    0.0028: real time    0.0028
    CHARGE:  cpu time    1.5616: real time    1.5615
    MIXING:  cpu time    0.0270: real time    0.0270
    --------------------------------------------
      LOOP:  cpu time    9.4712: real time    9.4697

 eigenvalue-minimisations  :  7024
 total energy-change (2. order) :-0.1592017E+02  (-0.1605371E+02)
 number of electron     768.0003386 magnetization 
 augmentation part      313.5522661 magnetization 

 Broyden mixing:
  rms(total) = 0.76322E+01    rms(broyden)= 0.76318E+01
  rms(prec ) = 0.87819E+01
  weight for this iteration     100.00

 eigenvalues of (default mixing * dielectric matrix)
  average eigenvalue GAMMA=   1.1291
  3.2494  0.8366  1.5076  0.9810  0.9810  0.6581  0.6581  0.1611

 Free energy of the ion-electron system (eV)
  ---------------------------------------------------
  alpha Z        PSCENC =      5503.57107827
  Ewald energy   TEWEN  =   -104412.32727402
  -Hartree energ DENC   =    -47097.68099831
  -exchange      EXHF   =         0.00000000
  -V(xc)+E(xc)   XCENC  =      5100.52610370
  PAW double counting   =    148105.59396732  -153898.83156966
  entropy T*S    EENTRO =        -0.00050135
  eigenvalues    EBANDS =    -16139.61756177
  atomic energy  EATOM  =    162405.62235658
  Solvation  Ediel_sol  =         0.00000000
  ---------------------------------------------------
  free energy    TOTEN  =      -433.14439924 eV

  energy without entropy =     -433.14389788  energy(sigma->0) =     -433.14414856


--------------------------------------------------------------------------------------------------------




----------------------------------------- Iteration    1(  14)  ---------------------------------------


    POTLOK:  cpu time    0.4050: real time    0.4048
    SETDIJ:  cpu time    0.1702: real time    0.1703
     EDDAV:  cpu time    7.2451: real time    7.2503
       DOS:  cpu time    0.0029: real time    0.0029
    CHARGE:  cpu time    1.5596: real time    1.5593
    MIXING:  cpu time    0.0288: real time    0.0289
    --------------------------------------------
      LOOP:  cpu time    9.4121: real time    9.4170

 eigenvalue-minimisations  :  7104
 total energy-change (2. order) :-0.2638693E+02  (-0.4519027E+01)
 number of electron     768.0003364 magnetization 
 augmentation part      308.8440306 magnetization 

 Broyden mixing:
  rms(total) = 0.76233E+01    rms(broyden)= 0.76232E+01
  rms(prec ) = 0.96396E+01
  weight for this iteration     100.00

 eigenvalues of (default mixing * dielectric matrix)
  average eigenvalue GAMMA=   1.4480
  4.6273  3.0087  1.3532  0.9353  0.9353  0.6566  0.6566  0.4293  0.4293

 Free energy of the ion-electron system (eV)
  ---------------------------------------------------
  alpha Z        PSCENC =      5503.57107827
  Ewald energy   TEWEN  =   -104412.32727402
  -Hartree energ DENC   =    -47674.06289778
  -exchange      EXHF   =         0.00000000
  -V(xc)+E(xc)   XCENC  =      5117.90454035
  PAW double counting   =    147310.67613435  -153022.36607196
  entropy T*S    EENTRO =        -0.00045272
  eigenvalues    EBANDS =    -15688.54873820
  atomic energy  EATOM  =    162405.62235658
  Solvation  Ediel_sol  =         0.00000000
  ---------------------------------------------------
  free energy    TOTEN  =      -459.53132514 eV

  energy without entropy =     -459.53087242  energy(sigma->0) =     -459.53109878


--------------------------------------------------------------------------------------------------------




----------------------------------------- Iteration    1(  15)  ---------------------------------------


    POTLOK:  cpu time    0.4044: real time    0.4042
    SETDIJ:  cpu time    0.1703: real time    0.1702
     EDDAV:  cpu time    6.7676: real time    6.7680
       DOS:  cpu time    0.0028: real time    0.0028
    CHARGE:  cpu time    1.5692: real time    1.5688
    MIXING:  cpu time    0.0352: real time    0.0351
    --------------------------------------------
      LOOP:  cpu time    8.9501: real time    8.9498

 eigenvalue-minimisations  :  6512
 total energy-change (2. order) :-0.1241013E+02  (-0.9745576E+00)
 number of electron     768.0003353 magnetization 
 augmentation part      307.1910254 magnetization 

 Broyden mixing:
  rms(total) = 0.91470E+01    rms(broyden)= 0.91470E+01
  rms(prec ) = 0.11232E+02
  weight for this iteration     100.00

 eigenvalues of (default mixing * dielectric matrix)
  average eigenvalue GAMMA=   1.1995
  3.2512  2.2649  1.2547  0.8967  0.8967  0.8092  0.8092  0.6384  0.5869  0.5869

 Free energy of the ion-electron system (eV)
  ---------------------------------------------------
  alpha Z        PSCENC =      5503.57107827
  Ewald energy   TEWEN  =   -104412.32727402
  -Hartree energ DENC   =    -47568.65146604
  -exchange      EXHF   =         0.00000000
  -V(xc)+E(xc)   XCENC  =      5112.13639642
  PAW double counting   =    149314.20416980  -155196.74180672
  entropy T*S    EENTRO =        -0.00039644
  eigenvalues    EBANDS =    -15629.75450967
  atomic energy  EATOM  =    162405.62235658
  Solvation  Ediel_sol  =         0.00000000
  ---------------------------------------------------
  free energy    TOTEN  =      -471.94145182 eV

  energy without entropy =     -471.94105537  energy(sigma->0) =     -471.94125359


--------------------------------------------------------------------------------------------------------




----------------------------------------- Iteration    1(  16)  ---------------------------------------


    POTLOK:  cpu time    0.4227: real time    0.4227
    SETDIJ:  cpu time    0.1706: real time    0.1706
     EDDAV:  cpu time    6.0766: real time    6.0750
       DOS:  cpu time    0.0029: real time    0.0029
    CHARGE:  cpu time    1.5639: real time    1.5637
    MIXING:  cpu time    0.0327: real time    0.0327
    --------------------------------------------
      LOOP:  cpu time    8.2699: real time    8.2682

 eigenvalue-minimisations  :  5576
 total energy-change (2. order) : 0.5776355E+02  (-0.9272402E+01)
 number of electron     768.0003233 magnetization 
 augmentation part      301.7482331 magnetization 

 Broyden mixing:
  rms(total) = 0.51359E+01    rms(broyden)= 0.51358E+01
  rms(prec ) = 0.64628E+01
  weight for this iteration     100.00

 eigenvalues of (default mixing * dielectric matrix)
  average eigenvalue GAMMA=   1.1314
  2.5245  2.5245  1.3177  1.3177  1.0212  1.0212  0.5388  0.5388  0.6289  0.6289
  0.3829

 Free energy of the ion-electron system (eV)
  ---------------------------------------------------
  alpha Z        PSCENC =      5503.57107827
  Ewald energy   TEWEN  =   -104412.32727402
  -Hartree energ DENC   =    -48260.29116673
  -exchange      EXHF   =         0.00000000
  -V(xc)+E(xc)   XCENC  =      5156.46548406
  PAW double counting   =    144818.01888203  -150719.46884158
  entropy T*S    EENTRO =        -0.00039945
  eigenvalues    EBANDS =    -14905.76802153
  atomic energy  EATOM  =    162405.62235658
  Solvation  Ediel_sol  =         0.00000000
  ---------------------------------------------------
  free energy    TOTEN  =      -414.17790236 eV

  energy without entropy =     -414.17750291  energy(sigma->0) =     -414.17770264


--------------------------------------------------------------------------------------------------------




----------------------------------------- Iteration    1(  17)  ---------------------------------------


    POTLOK:  cpu time    0.4209: real time    0.4207
    SETDIJ:  cpu time    0.1705: real time    0.1705
     EDDAV:  cpu time    6.8386: real time    6.8434
       DOS:  cpu time    0.0030: real time    0.0030
    CHARGE:  cpu time    1.5669: real time    1.5664
    MIXING:  cpu time    0.0355: real time    0.0354
    --------------------------------------------
      LOOP:  cpu time    9.0359: real time    9.0400

 eigenvalue-minimisations  :  6520
 total energy-change (2. order) : 0.1702296E+02  (-0.2943302E+01)
 number of electron     768.0003295 magnetization 
 augmentation part      307.1215912 magnetization 

 Broyden mixing:
  rms(total) = 0.34104E+01    rms(broyden)= 0.34103E+01
  rms(prec ) = 0.39645E+01
  weight for this iteration     100.00

 eigenvalues of (default mixing * dielectric matrix)
  average eigenvalue GAMMA=   1.1789
  3.0547  3.0547  1.0507  1.0507  1.1855  1.1855  0.6218  0.6218  0.6044  0.6044
  0.5565  0.5565

 Free energy of the ion-electron system (eV)
  ---------------------------------------------------
  alpha Z        PSCENC =      5503.57107827
  Ewald energy   TEWEN  =   -104412.32727402
  -Hartree energ DENC   =    -47578.12641134
  -exchange      EXHF   =         0.00000000
  -V(xc)+E(xc)   XCENC  =      5133.91480361
  PAW double counting   =    145988.09724595  -152008.76185771
  entropy T*S    EENTRO =        -0.00116412
  eigenvalues    EBANDS =    -15429.14372227
  atomic energy  EATOM  =    162405.62235658
  Solvation  Ediel_sol  =         0.00000000
  ---------------------------------------------------
  free energy    TOTEN  =      -397.15494506 eV

  energy without entropy =     -397.15378094  energy(sigma->0) =     -397.15436300


--------------------------------------------------------------------------------------------------------




----------------------------------------- Iteration    1(  18)  ---------------------------------------


    POTLOK:  cpu time    0.4206: real time    0.4203
    SETDIJ:  cpu time    0.1703: real time    0.1703
     EDDAV:  cpu time    7.0469: real time    7.0451
       DOS:  cpu time    0.0029: real time    0.0029
    CHARGE:  cpu time    1.5587: real time    1.5582
    MIXING:  cpu time    0.0381: real time    0.0380
    --------------------------------------------
      LOOP:  cpu time    9.2380: real time    9.2354

 eigenvalue-minimisations  :  6856
 total energy-change (2. order) : 0.3684769E+01  (-0.9519126E+00)
 number of electron     768.0003325 magnetization 
 augmentation part      308.9547828 magnetization 

 Broyden mixing:
  rms(total) = 0.25602E+01    rms(broyden)= 0.25601E+01
  rms(prec ) = 0.27713E+01
  weight for this iteration     100.00

 eigenvalues of (default mixing * dielectric matrix)
  average eigenvalue GAMMA=   1.2477
  3.2386  3.2386  1.4292  1.4292  1.1708  1.1708  0.6736  0.6736  0.7486  0.7486
  0.6061  0.6061  0.4864

 Free energy of the ion-electron system (eV)
  ---------------------------------------------------
  alpha Z        PSCENC =      5503.57107827
  Ewald energy   TEWEN  =   -104412.32727402
  -Hartree energ DENC   =    -47580.51209943
  -exchange      EXHF   =         0.00000000
  -V(xc)+E(xc)   XCENC  =      5137.15920210
  PAW double counting   =    144517.53705045  -150464.60162627
  entropy T*S    EENTRO =        -0.00040005
  eigenvalues    EBANDS =    -15499.91846403
  atomic energy  EATOM  =    162405.62235658
  Solvation  Ediel_sol  =         0.00000000
  ---------------------------------------------------
  free energy    TOTEN  =      -393.47017640 eV

  energy without entropy =     -393.46977635  energy(sigma->0) =     -393.46997638


--------------------------------------------------------------------------------------------------------




----------------------------------------- Iteration    1(  19)  ---------------------------------------


    POTLOK:  cpu time    0.4217: real time    0.4216
    SETDIJ:  cpu time    0.1705: real time    0.1704
     EDDAV:  cpu time    7.0477: real time    7.0504
       DOS:  cpu time    0.0029: real time    0.0029
    CHARGE:  cpu time    1.5661: real time    1.5656
    MIXING:  cpu time    0.0456: real time    0.0457
    --------------------------------------------
      LOOP:  cpu time    9.2552: real time    9.2572

 eigenvalue-minimisations  :  6848
 total energy-change (2. order) : 0.1349380E+01  (-0.2642617E+00)
 number of electron     768.0003330 magnetization 
 augmentation part      309.3833130 magnetization 

 Broyden mixing:
  rms(total) = 0.19799E+01    rms(broyden)= 0.19798E+01
  rms(prec ) = 0.20348E+01
  weight for this iteration     100.00

 eigenvalues of (default mixing * dielectric matrix)
  average eigenvalue GAMMA=   1.2911
  3.1804  3.1804  1.9064  1.9064  1.1970  0.9594  0.9594  0.6453  0.6453  0.9950
  0.7630  0.6087  0.6087  0.5198

 Free energy of the ion-electron system (eV)
  ---------------------------------------------------
  alpha Z        PSCENC =      5503.57107827
  Ewald energy   TEWEN  =   -104412.32727402
  -Hartree energ DENC   =    -47453.83086286
  -exchange      EXHF   =         0.00000000
  -V(xc)+E(xc)   XCENC  =      5134.51464196
  PAW double counting   =    144494.63710766  -150527.26592603
  entropy T*S    EENTRO =        -0.00039946
  eigenvalues    EBANDS =    -15537.04151860
  atomic energy  EATOM  =    162405.62235658
  Solvation  Ediel_sol  =         0.00000000
  ---------------------------------------------------
  free energy    TOTEN  =      -392.12079651 eV

  energy without entropy =     -392.12039704  energy(sigma->0) =     -392.12059678


--------------------------------------------------------------------------------------------------------




----------------------------------------- Iteration    1(  20)  ---------------------------------------


    POTLOK:  cpu time    0.4268: real time    0.4266
    SETDIJ:  cpu time    0.1707: real time    0.1706
     EDDAV:  cpu time    7.2958: real time    7.2939
       DOS:  cpu time    0.0030: real time    0.0030
    CHARGE:  cpu time    1.5577: real time    1.5573
    MIXING:  cpu time    0.0442: real time    0.0442
    --------------------------------------------
      LOOP:  cpu time    9.4988: real time    9.4962

 eigenvalue-minimisations  :  7104
 total energy-change (2. order) :-0.2718063E-01  (-0.2384799E+00)
 number of electron     768.0003328 magnetization 
 augmentation part      309.7834128 magnetization 

 Broyden mixing:
  rms(total) = 0.15882E+01    rms(broyden)= 0.15881E+01
  rms(prec ) = 0.16472E+01
  weight for this iteration     100.00

 eigenvalues of (default mixing * dielectric matrix)
  average eigenvalue GAMMA=   1.2377
  3.1441  3.1441  2.0530  2.0530  1.2048  0.9610  0.9610  0.6458  0.6458  0.9316
  0.7494  0.6085  0.6085  0.5287  0.3265

 Free energy of the ion-electron system (eV)
  ---------------------------------------------------
  alpha Z        PSCENC =      5503.57107827
  Ewald energy   TEWEN  =   -104412.32727402
  -Hartree energ DENC   =    -47371.47756646
  -exchange      EXHF   =         0.00000000
  -V(xc)+E(xc)   XCENC  =      5133.31667376
  PAW double counting   =    144151.50068654  -150252.35451264
  entropy T*S    EENTRO =        -0.00095333
  eigenvalues    EBANDS =    -15549.99846585
  atomic energy  EATOM  =    162405.62235658
  Solvation  Ediel_sol  =         0.00000000
  ---------------------------------------------------
  free energy    TOTEN  =      -392.14797713 eV

  energy without entropy =     -392.14702381  energy(sigma->0) =     -392.14750047


--------------------------------------------------------------------------------------------------------




----------------------------------------- Iteration    1(  21)  ---------------------------------------


    POTLOK:  cpu time    0.4188: real time    0.4186
    SETDIJ:  cpu time    0.1699: real time    0.1699
     EDDAV:  cpu time    6.6480: real time    6.6455
       DOS:  cpu time    0.0029: real time    0.0029
    CHARGE:  cpu time    1.5329: real time    1.5324
    MIXING:  cpu time    0.0461: real time    0.0461
    --------------------------------------------
      LOOP:  cpu time    8.8193: real time    8.8160

 eigenvalue-minimisations  :  6272
 total energy-change (2. order) : 0.1532469E+00  (-0.7311992E-01)
 number of electron     768.0003322 magnetization 
 augmentation part      309.2537752 magnetization 

 Broyden mixing:
  rms(total) = 0.97088E+00    rms(broyden)= 0.97088E+00
  rms(prec ) = 0.98474E+00
  weight for this iteration     100.00

 eigenvalues of (default mixing * dielectric matrix)
  average eigenvalue GAMMA=   1.3271
  2.8745  2.8745  2.9249  2.9249  1.0418  1.0418  0.6538  0.6538  1.1378  0.8460
  0.8460  0.8363  0.8363  0.6132  0.6132  0.5148

 Free energy of the ion-electron system (eV)
  ---------------------------------------------------
  alpha Z        PSCENC =      5503.57107827
  Ewald energy   TEWEN  =   -104412.32727402
  -Hartree energ DENC   =    -47441.73888300
  -exchange      EXHF   =         0.00000000
  -V(xc)+E(xc)   XCENC  =      5134.53356939
  PAW double counting   =    143317.56219424  -149390.97683305
  entropy T*S    EENTRO =        -0.00040265
  eigenvalues    EBANDS =    -15508.24053598
  atomic energy  EATOM  =    162405.62235658
  Solvation  Ediel_sol  =         0.00000000
  ---------------------------------------------------
  free energy    TOTEN  =      -391.99473022 eV

  energy without entropy =     -391.99432757  energy(sigma->0) =     -391.99452889


--------------------------------------------------------------------------------------------------------




----------------------------------------- Iteration    1(  22)  ---------------------------------------


    POTLOK:  cpu time    0.4020: real time    0.4018
    SETDIJ:  cpu time    0.1695: real time    0.1694
     EDDAV:  cpu time    6.1024: real time    6.0997
       DOS:  cpu time    0.0029: real time    0.0029
    CHARGE:  cpu time    1.5304: real time    1.5299
    MIXING:  cpu time    0.0493: real time    0.0494
    --------------------------------------------
      LOOP:  cpu time    8.2571: real time    8.2536

 eigenvalue-minimisations  :  5648
[...]
 -0.000  -0.000   0.000   0.000   0.000   0.028   0.000  -0.000  -0.026  -0.000  -0.000   0.001  -0.000  -0.000  -0.000  -0.000
 -0.000  -0.000   0.000  -0.000   0.000  -0.000   0.000  -0.000  -0.000  -0.000  -0.000   0.000  -0.000   0.000   0.000  -0.000
 -0.000   0.000   0.000   0.000   0.000  -0.037   0.000  -0.000   0.034  -0.000  -0.000  -0.001   0.000  -0.000   0.000  -0.000
 -0.000   0.000   0.000   0.003  -0.000   0.000  -0.001   0.000   0.000   0.000   0.000   0.000  -0.000   0.000   0.000   0.000
 -0.000   0.000   0.000   0.000  -0.000  -0.000  -0.000   0.000  -0.000  -0.000  -0.000  -0.000   0.000   0.000   0.000  -0.000
 -0.000  -0.000  -0.000   0.002  -0.000   0.000  -0.001  -0.000  -0.000   0.000   0.000  -0.000  -0.000   0.000   0.000   0.000
 -0.000   0.000  -0.000  -0.000  -0.003  -0.000   0.000   0.001  -0.000   0.000  -0.000   0.000   0.000   0.000   0.000  -0.000
  0.000   0.000   0.000  -0.000   0.000   0.002  -0.000   0.000  -0.001   0.000   0.000   0.000   0.000   0.000  -0.000  -0.000
 -0.000  -0.000   0.000   0.000  -0.000  -0.000   0.000   0.000   0.000   0.000   0.000   0.000  -0.000   0.000   0.000  -0.000
  0.000  -0.000   0.000  -0.000   0.000  -0.003   0.000  -0.000   0.001  -0.000   0.000  -0.000  -0.000  -0.000   0.000  -0.000


------------------------ aborting loop because EDIFF is reached ----------------------------------------


    CHARGE:  cpu time    1.5295: real time    1.5291
    FORLOC:  cpu time    0.2270: real time    0.2269
    FORNL :  cpu time    1.7764: real time    1.7809
    STRESS:  cpu time    6.1688: real time    6.1685
    FORCOR:  cpu time    0.6172: real time    0.6170
    FORHAR:  cpu time    0.2727: real time    0.2725
    MIXING:  cpu time    0.0938: real time    0.0937
    OFIELD:  cpu time    0.0001: real time    0.0001

  FORCE on cell =-STRESS in cart. coord.  units (eV):
  Direction    XX          YY          ZZ          XY          YZ          ZX
  --------------------------------------------------------------------------------------
  Alpha Z  5503.57108  5503.57108  5503.57108
  Ewald  -34804.29561-34804.29561-34804.29561    -0.00000    -0.00000    -0.00000
  Hartree 15844.03707 15844.03707 15844.03707    -0.00000    -0.00000    -0.00000
  E(xc)   -5429.97162 -5429.97162 -5429.97162    -0.00000    -0.00000     0.00000
  Local    2042.78535  2042.78535  2042.78535     0.00000     0.00000     0.00000
  n-local -3990.49269 -3986.72964 -3984.74528    -2.93335     0.04942     0.04967
  augment  6014.16369  6014.16369  6014.16368     0.00000    -0.00000     0.00000
  Kinetic 14769.96595 14809.46550 14846.27324     5.86413    -2.55124    -2.55126
  Fock        0.00000     0.00000     0.00000     0.00000     0.00000     0.00000
  -------------------------------------------------------------------------------------
  Total      -8.46435    -8.46435    -8.46435    -0.00000     0.00000     0.00000
  in kB     -23.52136   -23.52136   -23.52136    -0.00000     0.00000     0.00000
  external pressure =      -23.52 kB  Pullay stress =        0.00 kB


 VOLUME and BASIS-vectors are now :
 -----------------------------------------------------------------------------
  energy-cutoff  :      600.00
  volume of cell :      576.56
      direct lattice vectors                 reciprocal lattice vectors
     8.323012000  0.000000000  0.000000000     0.120148812  0.000000000  0.000000000
     0.000000000  8.323012000  0.000000000     0.000000000  0.120148812  0.000000000
     0.000000000  0.000000000  8.323012000     0.000000000  0.000000000  0.120148812

  length of vectors
     8.323012000  8.323012000  8.323012000     0.120148812  0.120148812  0.120148812


 FORCES acting on ions
    electron-ion (+dipol)            ewald-force                    non-local-force                 convergence-correction
 -----------------------------------------------------------------------------------------------
   0.645E-12 0.433E-12 0.100E-11   0.246E-12 -.126E-12 0.248E-14   0.695E-22 -.179E-21 -.596E-22   0.745E-12 0.109E-12 0.182E-11
   0.552E-12 0.489E-12 0.270E-12   0.260E-12 -.639E-13 0.628E-14   0.703E-22 0.960E-22 -.678E-22   0.866E-12 0.854E-13 -.617E-12
   0.582E-12 0.184E-12 0.925E-12   0.530E-12 0.178E-14 -.463E-14   -.261E-21 0.926E-22 0.629E-22   0.632E-12 0.221E-12 0.195E-11
   0.678E-12 0.105E-12 0.342E-12   0.516E-12 -.711E-14 -.826E-15   0.331E-22 -.108E-21 -.165E-22   0.531E-12 0.264E-12 -.587E-12
   0.174E-12 0.475E-12 -.595E-10   0.488E-12 -.711E-14 -.544E-13   -.422E-22 0.339E-22 0.529E-22   -.147E-11 0.264E-12 0.164E-11
   0.250E-12 0.428E-12 0.307E-10   0.544E-12 -.568E-13 0.628E-14   -.496E-23 -.165E-22 0.145E-21   -.159E-11 0.339E-12 -.615E-12
   0.222E-12 0.126E-10 -.523E-11   0.488E-12 0.711E-14 -.615E-13   0.213E-21 -.926E-22 -.798E-22   -.132E-11 0.157E-12 0.165E-11
   0.143E-12 0.114E-10 -.138E-10   0.544E-12 0.000E+00 -.826E-15   -.182E-21 -.265E-22 0.146E-21   -.126E-11 0.981E-13 -.639E-12
   0.646E-12 0.986E-12 0.100E-11   0.500E-12 0.108E-12 0.711E-14   0.156E-21 0.000E+00 0.179E-21   0.591E-12 0.962E-13 -.160E-11
   0.497E-12 0.104E-11 0.132E-11   0.508E-12 0.989E-13 0.639E-13   -.761E-22 0.184E-21 0.205E-21   0.602E-12 0.765E-13 0.614E-12
   0.565E-12 0.155E-11 0.892E-12   0.501E-12 0.974E-13 0.000E+00   -.728E-22 0.131E-21 -.463E-22   0.774E-12 0.207E-12 -.154E-11
   0.630E-12 0.147E-11 0.136E-11   0.395E-12 0.458E-13 0.568E-13   0.232E-22 -.141E-21 -.192E-21   0.772E-12 0.226E-12 0.547E-12
   0.240E-12 0.437E-10 0.196E-10   0.537E-12 -.574E-13 0.711E-14   -.199E-22 -.695E-22 0.185E-21   -.128E-11 -.126E-13 -.159E-11
   0.365E-12 0.149E-11 0.309E-11   0.509E-12 0.106E-12 0.711E-14   0.103E-21 0.298E-22 -.198E-21   -.129E-11 -.769E-13 0.429E-12
   0.307E-12 -.732E-11 0.121E-10   0.431E-12 0.103E-12 0.568E-13   0.147E-21 -.926E-22 0.977E-23   -.150E-11 0.319E-12 -.170E-11
   0.240E-12 0.176E-11 -.223E-10   0.402E-12 0.530E-13 0.568E-13   -.544E-22 0.154E-21 -.158E-21   -.144E-11 0.373E-12 0.431E-12
   0.108E-11 0.521E-12 0.161E-10   -.313E-12 -.128E-12 -.568E-13   -.397E-22 0.129E-21 0.960E-22   0.351E-13 0.644E-13 -.182E-11
   0.112E-11 0.424E-12 0.125E-11   -.284E-12 -.114E-12 0.639E-13   0.877E-22 -.827E-23 -.206E-21   0.920E-13 0.856E-13 0.258E-12
   0.120E-11 -.186E-12 0.184E-11   -.426E-12 -.171E-12 -.711E-14   0.893E-22 -.159E-21 0.201E-22   -.234E-13 0.247E-12 -.182E-11
   0.112E-11 -.888E-11 0.937E-11   -.369E-12 -.171E-12 0.000E+00   -.148E-21 0.331E-22 0.480E-22   0.427E-13 0.244E-12 0.386E-12
   0.169E-11 0.428E-12 -.432E-11   -.306E-12 -.128E-12 -.568E-13   -.149E-22 -.515E-22 0.122E-21   0.122E-11 0.169E-12 -.165E-11
   0.168E-11 0.540E-12 -.542E-10   -.320E-12 0.000E+00 0.711E-14   0.000E+00 -.471E-22 -.132E-21   0.115E-11 0.105E-12 0.641E-12
   0.163E-11 -.956E-11 -.839E-11   -.277E-12 -.426E-13 -.639E-13   -.844E-22 -.179E-21 0.200E-21   0.122E-11 -.122E-12 -.150E-11
   0.173E-11 0.126E-10 -.770E-11   -.263E-12 -.171E-12 0.000E+00   -.678E-22 0.130E-21 -.122E-21   0.118E-11 -.870E-13 0.498E-12
   0.124E-11 0.739E-11 -.208E-11   -.377E-12 0.113E-12 0.248E-14   -.132E-22 0.662E-23 0.122E-21   0.323E-13 0.165E-12 0.142E-11
   0.114E-11 -.629E-11 -.465E-11   -.405E-12 -.153E-13 0.631E-13   0.165E-23 0.480E-22 -.170E-21   0.108E-12 0.137E-12 -.886E-12
   0.114E-11 -.620E-11 -.280E-11   -.369E-12 0.453E-13 -.462E-14   -.910E-22 0.513E-22 0.000E+00   -.765E-13 0.388E-12 0.146E-11
   0.117E-11 0.785E-13 -.114E-10   -.398E-12 0.453E-13 0.560E-13   0.185E-21 -.129E-21 0.858E-22   -.693E-13 0.471E-12 -.878E-12
   0.159E-11 0.596E-11 0.167E-10   -.293E-12 0.113E-12 0.248E-14   -.106E-21 -.978E-22 0.144E-21   0.115E-11 0.105E-12 0.176E-11
   0.171E-11 0.986E-12 -.191E-10   -.284E-12 -.153E-13 0.629E-14   0.993E-22 0.877E-22 -.422E-22   0.108E-11 0.252E-12 -.677E-12
   0.168E-11 -.363E-10 0.137E-10   -.178E-12 0.453E-13 0.522E-13   -.827E-22 -.121E-21 0.132E-22   0.122E-11 0.307E-12 0.176E-11
   0.168E-11 0.261E-11 0.268E-11   -.171E-12 0.453E-13 0.560E-13   -.347E-22 -.119E-21 -.699E-22   0.122E-11 0.109E-12 -.458E-12
   0.118E-12 0.323E-12 -.212E-12   -.657E-13 -.799E-14 -.115E-13   0.171E-22 -.827E-24 0.993E-23   -.253E-12 -.442E-14 0.757E-12
   0.909E-13 0.353E-12 -.938E-11   -.568E-13 0.711E-14 -.315E-14   -.662E-23 0.308E-22 0.248E-23   -.190E-12 -.500E-13 -.278E-12
   0.123E-12 0.903E-12 -.104E-10   -.195E-13 0.888E-14 -.115E-13   -.290E-23 0.285E-22 0.265E-22   -.236E-12 0.150E-13 0.749E-12
   0.119E-12 0.974E-12 0.524E-12   0.000E+00 0.000E+00 -.315E-14   -.744E-23 0.269E-23 -.127E-22   -.263E-12 0.553E-13 -.205E-12
   0.397E-12 0.313E-12 0.214E-11   -.462E-13 -.133E-13 -.115E-13   0.279E-23 0.662E-23 0.182E-22   0.405E-12 0.609E-13 0.707E-12
   0.426E-12 0.291E-12 -.167E-11   0.142E-13 -.142E-13 -.103E-13   0.199E-22 0.827E-24 0.165E-23   0.338E-12 0.749E-13 -.207E-12
   0.376E-12 -.119E-11 0.130E-10   -.648E-13 0.000E+00 -.442E-14   0.157E-22 -.172E-22 -.414E-23   0.405E-12 -.203E-13 0.816E-12
   0.382E-12 0.509E-11 -.107E-11   -.782E-13 0.000E+00 -.315E-14   -.112E-22 0.248E-22 -.182E-22   0.435E-12 -.317E-13 -.327E-12
   0.113E-12 -.176E-11 0.102E-11   -.560E-13 -.596E-14 -.213E-13   -.256E-22 0.620E-23 -.339E-22   -.194E-12 -.135E-12 -.550E-12
   0.112E-12 0.398E-11 0.232E-11   -.560E-13 -.774E-14 -.213E-13   -.155E-22 -.248E-22 -.215E-22   -.194E-12 -.873E-13 0.452E-12
   0.139E-12 0.419E-11 0.257E-11   -.142E-13 -.216E-13 -.142E-13   0.327E-22 0.323E-22 -.579E-23   -.315E-12 0.613E-13 -.494E-12
   0.874E-13 -.850E-12 0.220E-11   -.284E-13 -.646E-14 -.142E-13   0.620E-23 0.196E-22 0.318E-22   -.223E-12 0.164E-13 0.437E-12
   0.402E-12 0.491E-11 -.133E-11   -.231E-13 -.148E-13 -.213E-13   0.317E-22 -.439E-23 0.194E-22   0.366E-12 0.288E-13 -.532E-12
   0.404E-12 0.161E-10 -.830E-11   -.888E-14 -.148E-13 -.213E-13   0.306E-22 0.703E-23 0.133E-22   0.368E-12 -.727E-13 0.442E-12
   0.359E-12 -.806E-11 0.117E-10   -.853E-13 -.269E-13 -.711E-14   -.910E-23 0.298E-22 -.168E-22   0.495E-12 -.742E-13 -.568E-12
   0.411E-12 0.164E-11 -.458E-11   -.156E-12 -.646E-14 -.142E-13   -.265E-22 -.910E-23 -.993E-23   0.396E-12 0.316E-13 0.440E-12
   0.172E-12 0.381E-12 0.165E-12   -.968E-13 0.231E-13 0.107E-13   0.124E-23 0.207E-23 -.145E-23   0.420E-12 -.554E-13 -.588E-12
   0.197E-12 0.362E-12 0.342E-12   -.102E-12 0.231E-13 0.107E-13   -.141E-22 0.662E-23 -.269E-22   0.357E-12 -.126E-13 0.497E-12
   0.251E-12 0.191E-12 0.122E-12   -.107E-12 0.373E-13 0.178E-13   0.128E-22 0.125E-22 0.703E-23   0.264E-12 0.379E-13 -.494E-12
   0.152E-12 -.501E-13 -.208E-12   -.130E-12 0.231E-13 0.178E-13   -.219E-22 0.285E-22 0.120E-22   0.352E-12 -.227E-14 0.398E-12
   0.834E-13 0.315E-12 0.189E-10   -.103E-12 0.000E+00 0.711E-14   0.332E-22 0.143E-22 0.128E-22   -.615E-12 0.801E-13 -.525E-12
   0.584E-13 0.342E-12 0.325E-11   -.104E-12 0.284E-13 0.142E-13   0.157E-22 -.168E-22 0.174E-22   -.556E-12 0.292E-13 0.419E-12
   -.497E-14 0.501E-11 0.831E-11   -.365E-13 0.426E-13 0.142E-13   0.151E-22 0.796E-23 0.300E-23   -.447E-12 -.917E-13 -.523E-12
   0.929E-13 0.578E-11 0.497E-11   -.258E-13 0.284E-13 0.213E-13   -.183E-22 -.579E-23 -.180E-22   -.543E-12 -.387E-13 0.437E-12
   0.191E-12 0.130E-12 0.456E-12   -.887E-13 0.179E-13 0.413E-14   0.109E-22 0.910E-23 -.132E-22   0.288E-12 -.139E-12 0.783E-12
   0.238E-12 0.976E-13 0.197E-12   -.745E-13 0.181E-13 0.256E-14   0.165E-23 -.190E-22 0.248E-23   0.269E-12 -.454E-13 -.266E-12
   0.203E-12 0.327E-12 0.434E-12   -.102E-12 0.710E-14 0.422E-14   -.290E-23 0.160E-22 0.300E-22   0.333E-12 0.701E-16 0.824E-12
   0.198E-12 -.209E-12 -.462E-13   -.173E-12 0.215E-13 0.977E-14   0.161E-22 0.281E-22 0.331E-23   0.368E-12 -.998E-13 -.295E-12
   0.664E-13 0.181E-10 -.119E-10   -.881E-13 0.266E-13 0.794E-14   0.827E-24 -.372E-23 -.285E-22   -.505E-12 -.979E-13 0.778E-12
   0.183E-13 0.749E-11 0.828E-11   -.738E-13 -.169E-14 0.637E-14   -.910E-23 0.729E-23 0.189E-23   -.484E-12 -.106E-12 -.271E-12
   0.663E-13 0.270E-11 -.119E-10   -.827E-13 0.158E-13 0.929E-15   0.141E-22 -.455E-23 -.279E-22   -.544E-12 0.279E-13 0.721E-12
   0.712E-13 0.554E-11 0.426E-11   -.111E-12 0.159E-13 0.136E-13   0.372E-23 -.248E-23 0.125E-22   -.583E-12 0.315E-13 -.219E-12
 -----------------------------------------------------------------------------------------------
   0.354E-10 0.109E-09 -.572E-10   0.121E-12 -.431E-13 0.239E-12   -.661E-23 -.217E-21 0.265E-21   0.367E-11 0.477E-11 0.198E-11
 
 
 POSITION                                       TOTAL-FORCE (eV/Angst)
 -----------------------------------------------------------------------------------
      0.00000      0.00000      0.00000         0.000000      0.000000      0.000000
      0.00000      0.00000      4.16151        -0.000000     -0.000000     -0.000000
      0.00000      4.16151      0.00000         0.000000     -0.000000     -0.000000
      0.00000      4.16151      4.16151        -0.000000      0.000000     -0.000000
      4.16151      0.00000      0.00000        -0.000000      0.000000      0.000000
      4.16151      0.00000      4.16151        -0.000000      0.000000      0.000000
      4.16151      4.16151      0.00000        -0.000000     -0.000000     -0.000000
      4.16151      4.16151      4.16151        -0.000000     -0.000000      0.000000
      0.00000      2.08075      2.08075         0.000000     -0.000000     -0.000000
      0.00000      2.08075      6.24226        -0.000000      0.000000      0.000000
      0.00000      6.24226      2.08075         0.000000     -0.000000      0.000000
      0.00000      6.24226      6.24226         0.000000     -0.000000      0.000000
      4.16151      2.08075      2.08075        -0.000000      0.000000     -0.000000
      4.16151      2.08075      6.24226        -0.000000      0.000000     -0.000000
      4.16151      6.24226      2.08075         0.000000      0.000000     -0.000000
      4.16151      6.24226      6.24226        -0.000000      0.000000     -0.000000
      2.08075      0.00000      2.08075         0.000000     -0.000000      0.000000
      2.08075      0.00000      6.24226         0.000000      0.000000     -0.000000
      2.08075      4.16151      2.08075         0.000000      0.000000     -0.000000
      2.08075      4.16151      6.24226        -0.000000     -0.000000      0.000000
      6.24226      0.00000      2.08075         0.000000      0.000000      0.000000
      6.24226      0.00000      6.24226        -0.000000      0.000000      0.000000
      6.24226      4.16151      2.08075        -0.000000      0.000000     -0.000000
      6.24226      4.16151      6.24226         0.000000     -0.000000      0.000000
      2.08075      2.08075      0.00000        -0.000000      0.000000      0.000000
      2.08075      2.08075      4.16151        -0.000000     -0.000000      0.000000
      2.08075      6.24226      0.00000         0.000000      0.000000     -0.000000
      2.08075      6.24226      4.16151        -0.000000      0.000000     -0.000000
      6.24226      2.08075      0.00000        -0.000000     -0.000000     -0.000000
      6.24226      2.08075      4.16151        -0.000000      0.000000     -0.000000
      6.24226      6.24226      0.00000         0.000000      0.000000      0.000000
      6.24226      6.24226      4.16151         0.000000     -0.000000      0.000000
      2.08075      0.00000      0.00000         0.000000     -0.000000      0.000000
      2.08075      0.00000      4.16151         0.000000      0.000000     -0.000000
      2.08075      4.16151      0.00000        -0.000000     -0.000000      0.000000
      2.08075      4.16151      4.16151        -0.000000     -0.000000      0.000000
      6.24226      0.00000      0.00000        -0.000000     -0.000000     -0.000000
      6.24226      0.00000      4.16151        -0.000000     -0.000000      0.000000
      6.24226      4.16151      0.00000         0.000000      0.000000     -0.000000
      6.24226      4.16151      4.16151         0.000000      0.000000      0.000000
      2.08075      2.08075      2.08075        -0.000000      0.000000      0.000000
      2.08075      2.08075      6.24226        -0.000000      0.000000     -0.000000
      2.08075      6.24226      2.08075         0.000000     -0.000000      0.000000
      2.08075      6.24226      6.24226         0.000000     -0.000000     -0.000000
      6.24226      2.08075      2.08075         0.000000     -0.000000      0.000000
      6.24226      2.08075      6.24226         0.000000     -0.000000     -0.000000
      6.24226      6.24226      2.08075        -0.000000     -0.000000      0.000000
      6.24226      6.24226      6.24226        -0.000000     -0.000000     -0.000000
      0.00000      0.00000      2.08075        -0.000000      0.000000      0.000000
      0.00000      0.00000      6.24226         0.000000      0.000000     -0.000000
      0.00000      4.16151      2.08075         0.000000     -0.000000      0.000000
      0.00000      4.16151      6.24226        -0.000000      0.000000     -0.000000
      4.16151      0.00000      2.08075        -0.000000     -0.000000      0.000000
      4.16151      0.00000      6.24226         0.000000     -0.000000     -0.000000
      4.16151      4.16151      2.08075        -0.000000      0.000000      0.000000
      4.16151      4.16151      6.24226        -0.000000      0.000000     -0.000000
      0.00000      2.08075      0.00000        -0.000000      0.000000      0.000000
      0.00000      2.08075      4.16151         0.000000     -0.000000      0.000000
      0.00000      6.24226      0.00000         0.000000     -0.000000      0.000000
      0.00000      6.24226      4.16151        -0.000000     -0.000000      0.000000
      4.16151      2.08075      0.00000        -0.000000      0.000000      0.000000
      4.16151      2.08075      4.16151         0.000000      0.000000     -0.000000
      4.16151      6.24226      0.00000        -0.000000     -0.000000     -0.000000
      4.16151      6.24226      4.16151        -0.000000     -0.000000      0.000000
 -----------------------------------------------------------------------------------
    total drift:                                0.000000      0.000000     -0.000000


--------------------------------------------------------------------------------------------------------



  FREE ENERGIE OF THE ION-ELECTRON SYSTEM (eV)
  ---------------------------------------------------
  free  energy   TOTEN  =      -391.96814688 eV

  energy  without entropy=     -391.96773535  energy(sigma->0) =     -391.96794111
 


--------------------------------------------------------------------------------------------------------


    POTLOK:  cpu time    0.5722: real time    0.5719


--------------------------------------------------------------------------------------------------------


 writing wavefunctions
     LOOP+:  cpu time  290.7732: real time  290.7806
    4ORBIT:  cpu time    0.0000: real time    0.0000

 total amount of memory used by VASP MPI-rank0   797650. kBytes
=======================================================================

   base      :      30000. kBytes
   nonlr-proj:      38118. kBytes
   fftplans  :      34720. kBytes
   grid      :      61840. kBytes
   one-center:       5164. kBytes
   wavefun   :     627808. kBytes
 
  
  
 General timing and accounting informations for this job:
 ========================================================
  
                  Total CPU time used (sec):      299.780
                            User time (sec):      295.312
                          System time (sec):        4.468
                         Elapsed time (sec):      299.810
  
                   Maximum memory used (kb):     1433768.
                   Average memory used (kb):           0.
  
                          Minor page faults:      3398958
                          Major page faults:            0
                 Voluntary context switches:         3796
