       N       E                     dE             d eps       ncg     rms          rms(c)
DAV:   1    -0.535803221010E+03   -0.53580E+03   -0.84375E+02 19560   0.788E+02    0.149E+02
DAV:   2    -0.470829654994E+03    0.64974E+02   -0.15668E+03 19280   0.524E+02    0.120E+02
DAV:   3    -0.390754734189E+03    0.80075E+02   -0.47081E+02 16676   0.530E+02    0.269E+01
DAV:   4    -0.393816121213E+03   -0.30614E+01   -0.73298E+01 20940   0.701E+01    0.126E+01
DAV:   5    -0.392673722048E+03    0.11424E+01   -0.88702E+00 21344   0.398E+01    0.938E+00
DAV:   6    -0.392738678599E+03   -0.64957E-01   -0.28320E+00 17952   0.267E+01    0.516E+00
DAV:   7    -0.392748315255E+03   -0.96367E-02   -0.95649E-01 21248   0.122E+01    0.188E+00
DAV:   8    -0.392811545682E+03   -0.63230E-01   -0.47003E-01 20792   0.483E+00    0.385E+00
DAV:   9    -0.392738953129E+03    0.72593E-01   -0.93145E-01 19208   0.542E+00    0.168E+00
DAV:  10    -0.392728679256E+03    0.10274E-01   -0.18878E-02 21904   0.186E+00    0.176E+00
DAV:  11    -0.392641177467E+03    0.87502E-01   -0.63429E-02 21120   0.579E+00    0.334E+00
DAV:  12    -0.392368373332E+03    0.27280E+00   -0.17421E+00 21280   0.114E+01    0.620E+00
DAV:  13    -0.392296942258E+03    0.71431E-01   -0.90216E-02 21960   0.396E+00    0.609E+00
DAV:  14    -0.392281314224E+03    0.15628E-01   -0.10571E-02 18240   0.143E+00    0.636E+00
DAV:  15    -0.392635219613E+03   -0.35391E+00   -0.67060E-01 20368   0.149E+01    0.356E+00
DAV:  16    -0.392724047656E+03   -0.88828E-01   -0.17074E-01 21984   0.473E+00    0.234E+00
DAV:  17    -0.392862969547E+03   -0.13892E+00   -0.84547E-01 21320   0.775E+00    0.435E+00
DAV:  18    -0.392922991492E+03   -0.60022E-01   -0.52083E-02 21736   0.287E+00    0.481E+00
DAV:  19    -0.392787096187E+03    0.13590E+00   -0.17940E-01 20424   0.524E+00    0.278E+00
DAV:  20    -0.392720869083E+03    0.66227E-01   -0.49057E-02 21856   0.419E+00    0.179E+00
DAV:  21    -0.392602900237E+03    0.11797E+00   -0.89655E-02 21440   0.667E+00    0.378E+00
DAV:  22    -0.392623110805E+03   -0.20211E-01   -0.21231E-02 20440   0.183E+00    0.392E+00
DAV:  23    -0.392550574238E+03    0.72537E-01   -0.21131E-01 21392   0.334E+00    0.371E+00
DAV:  24    -0.392550608109E+03   -0.33870E-04   -0.47896E-03 20440   0.581E-01    0.376E+00
DAV:  25    -0.392486792087E+03    0.63816E-01   -0.16165E-01 21544   0.262E+00    0.379E+00
DAV:  26    -0.392481332149E+03    0.54599E-02   -0.39026E-03 21856   0.554E-01    0.392E+00
DAV:  27    -0.392446564357E+03    0.34768E-01   -0.33070E-03 21184   0.132E+00    0.463E+00
DAV:  28    -0.392517168999E+03   -0.70605E-01   -0.13289E-02 20392   0.316E+00    0.365E+00
DAV:  29    -0.392514487277E+03    0.26817E-02   -0.34925E-03 21624   0.424E-01    0.372E+00
DAV:  30    -0.392503851950E+03    0.10635E-01   -0.30778E-04 20928   0.344E-01    0.377E+00
DAV:  31    -0.392475817533E+03    0.28034E-01   -0.18307E-03 20432   0.106E+00    0.373E+00
DAV:  32    -0.392496504579E+03   -0.20687E-01   -0.19619E-02 20824   0.102E+00    0.367E+00
DAV:  33    -0.392488891071E+03    0.76135E-02   -0.11602E-02 21184   0.831E-01    0.380E+00
DAV:  34    -0.392488810425E+03    0.80646E-04   -0.41948E-04 21784   0.237E-01    0.380E+00
DAV:  35    -0.392487913842E+03    0.89658E-03   -0.38899E-05 17936   0.901E-02    0.379E+00
DAV:  36    -0.392490667613E+03   -0.27538E-02   -0.29155E-05 16136   0.151E-01    0.376E+00
DAV:  37    -0.392516096699E+03   -0.25429E-01   -0.15466E-02 19928   0.118E+00    0.337E+00
DAV:  38    -0.392571992816E+03   -0.55896E-01   -0.12020E-01 20808   0.236E+00    0.321E+00
DAV:  39    -0.392579757732E+03   -0.77649E-02   -0.50663E-03 21608   0.582E-01    0.347E+00
DAV:  40    -0.392588873705E+03   -0.91160E-02   -0.66532E-04 21200   0.565E-01    0.320E+00
DAV:  41    -0.392586187812E+03    0.26859E-02   -0.59697E-04 19984   0.622E-01    0.331E+00
DAV:  42    -0.392590938003E+03   -0.47502E-02   -0.18715E-03 21280   0.548E-01    0.332E+00
DAV:  43    -0.392603792396E+03   -0.12854E-01   -0.61521E-04 21536   0.553E-01    0.386E+00
DAV:  44    -0.392641229726E+03   -0.37437E-01   -0.41593E-03 21176   0.154E+00    0.334E+00
DAV:  45    -0.392654333571E+03   -0.13104E-01   -0.20864E-03 21872   0.666E-01    0.299E+00
DAV:  46    -0.392665036884E+03   -0.10703E-01   -0.65880E-04 21712   0.580E-01    0.267E+00
DAV:  47    -0.392673575775E+03   -0.85389E-02   -0.95430E-04 21608   0.551E-01    0.236E+00
DAV:  48    -0.392673310415E+03    0.26536E-03   -0.21838E-04 16304   0.207E-01    0.237E+00
DAV:  49    -0.392675697889E+03   -0.23875E-02   -0.78383E-05 20192   0.178E-01    0.228E+00
DAV:  50    -0.392689066094E+03   -0.13368E-01   -0.10439E-03 20200   0.861E-01    0.182E+00
DAV:  51    -0.392700550051E+03   -0.11484E-01   -0.18437E-03 21256   0.859E-01    0.248E+00
DAV:  52    -0.392715109127E+03   -0.14559E-01   -0.17974E-03 21416   0.946E-01    0.194E+00
DAV:  53    -0.392732742101E+03   -0.17633E-01   -0.39661E-03 21448   0.143E+00    0.157E+00
DAV:  54    -0.392746856114E+03   -0.14114E-01   -0.29824E-03 21808   0.113E+00    0.199E+00
DAV:  55    -0.392749934514E+03   -0.30784E-02   -0.62994E-04 19024   0.403E-01    0.185E+00
DAV:  56    -0.392754159888E+03   -0.42254E-02   -0.47857E-04 21784   0.325E-01    0.163E+00
DAV:  57    -0.392760880500E+03   -0.67206E-02   -0.60209E-04 21616   0.575E-01    0.131E+00
DAV:  58    -0.392764173672E+03   -0.32932E-02   -0.47594E-04 21896   0.453E-01    0.130E+00
DAV:  59    -0.392805630842E+03   -0.41457E-01   -0.34864E-01 20752   0.227E+00    0.402E+00
DAV:  60    -0.392965108934E+03   -0.15948E+00   -0.11126E-01 21192   0.639E+00    0.257E+00
DAV:  61    -0.392993038483E+03   -0.27930E-01   -0.75888E-02 21744   0.567E+00    0.167E+00
DAV:  62    -0.392965616254E+03    0.27422E-01   -0.22766E-02 21568   0.325E+00    0.267E+00
DAV:  63    -0.392968803109E+03   -0.31869E-02   -0.64457E-03 16496   0.109E+00    0.264E+00
DAV:  64    -0.392958940902E+03    0.98622E-02   -0.14698E-03 21624   0.731E-01    0.280E+00
DAV:  65    -0.392957764795E+03    0.11761E-02   -0.87579E-04 21920   0.616E-01    0.204E+00
DAV:  66    -0.392958736566E+03   -0.97177E-03   -0.10333E-03 21944   0.703E-01    0.211E+00
DAV:  67    -0.392991270621E+03   -0.32534E-01   -0.36134E-02 20432   0.525E+00    0.164E+00
DAV:  68    -0.392985910498E+03    0.53601E-02   -0.66648E-03 21152   0.129E+00    0.174E+00
DAV:  69    -0.392986008542E+03   -0.98045E-04   -0.56542E-04 19064   0.245E-01    0.174E+00
DAV:  70    -0.392986285305E+03   -0.27676E-03   -0.97776E-05 18680   0.186E-01    0.182E+00
DAV:  71    -0.392996784180E+03   -0.10499E-01   -0.21644E-03 20760   0.118E+00    0.162E+00
DAV:  72    -0.393001940093E+03   -0.51559E-02   -0.63528E-03 21728   0.176E+00    0.130E+00
DAV:  73    -0.392995817733E+03    0.61224E-02   -0.41534E-03 21752   0.134E+00    0.152E+00
DAV:  74    -0.392992247867E+03    0.35699E-02   -0.81709E-04 19008   0.534E-01    0.162E+00
DAV:  75    -0.392987808797E+03    0.44391E-02   -0.53615E-04 21584   0.339E-01    0.175E+00
DAV:  76    -0.392989060883E+03   -0.12521E-02   -0.27140E-04 20104   0.457E-01    0.159E+00
DAV:  77    -0.392995959227E+03   -0.68983E-02   -0.41692E-03 21304   0.157E+00    0.124E+00
DAV:  78    -0.392995010370E+03    0.94886E-03   -0.74186E-04 21216   0.539E-01    0.126E+00
DAV:  79    -0.392994972218E+03    0.38152E-04   -0.10768E-04 21424   0.182E-01    0.128E+00
DAV:  80    -0.392991586091E+03    0.33861E-02   -0.61692E-04 20808   0.618E-01    0.142E+00
DAV:  81    -0.392992856568E+03   -0.12705E-02   -0.26264E-04 21208   0.348E-01    0.129E+00
DAV:  82    -0.392976481225E+03    0.16375E-01   -0.58993E-03 20192   0.206E+00    0.198E+00
DAV:  83    -0.392980558353E+03   -0.40771E-02   -0.13252E-03 20928   0.420E-01    0.181E+00
DAV:  84    -0.392984808205E+03   -0.42499E-02   -0.27406E-04 21464   0.353E-01    0.160E+00
DAV:  85    -0.392987504728E+03   -0.26965E-02   -0.17705E-04 21784   0.266E-01    0.147E+00
DAV:  86    -0.392988050866E+03   -0.54614E-03   -0.33757E-05 14560   0.915E-02    0.144E+00
DAV:  87    -0.392979081858E+03    0.89690E-02   -0.85452E-04 19488   0.840E-01    0.190E+00
DAV:  88    -0.392977188574E+03    0.18933E-02   -0.36908E-04 21704   0.207E-01    0.198E+00
DAV:  89    -0.392979037565E+03   -0.18490E-02   -0.44432E-05 18112   0.181E-01    0.190E+00
DAV:  90    -0.392981889703E+03   -0.28521E-02   -0.10876E-04 19552   0.246E-01    0.176E+00
DAV:  91    -0.392982536336E+03   -0.64663E-03   -0.30033E-05 16720   0.779E-02    0.173E+00
DAV:  92    -0.392989855360E+03   -0.73190E-02   -0.69006E-04 20272   0.738E-01    0.130E+00
DAV:  93    -0.392990632772E+03   -0.77741E-03   -0.23941E-04 20736   0.150E-01    0.126E+00
DAV:  94    -0.392991171243E+03   -0.53847E-03   -0.18342E-05 14624   0.790E-02    0.122E+00
DAV:  95    -0.392991712138E+03   -0.54090E-03   -0.48131E-05 17672   0.814E-02    0.118E+00
DAV:  96    -0.392992927286E+03   -0.12151E-02   -0.59254E-05 17448   0.163E-01    0.109E+00
DAV:  97    -0.392994287144E+03   -0.13599E-02   -0.19858E-04 19544   0.231E-01    0.101E+00
DAV:  98    -0.392995191993E+03   -0.90485E-03   -0.84520E-05 18600   0.180E-01    0.915E-01
DAV:  99    -0.392994917557E+03    0.27444E-03   -0.22867E-05 15648   0.848E-02    0.929E-01
DAV: 100    -0.392994736209E+03    0.18135E-03   -0.10063E-05 13280   0.492E-02
   1 F= -.39299474E+03 E0= -.39299474E+03  d E =-.269061E-21  mag=     0.0000
