       N       E                     dE             d eps       ncg     rms          rms(c)
DAV:   1    -0.469106022945E+03   -0.46911E+03   -0.26227E+03 19376   0.136E+03    0.171E+02
DAV:   2    -0.494581523661E+03   -0.25476E+02   -0.23383E+03 18736   0.602E+02    0.123E+02
DAV:   3    -0.393954879242E+03    0.10063E+03   -0.67684E+02 15532   0.615E+02    0.387E+01
DAV:   4    -0.405120584901E+03   -0.11166E+02   -0.13485E+02 21448   0.101E+02    0.221E+01
DAV:   5    -0.401223026594E+03    0.38976E+01   -0.19349E+01 21408   0.620E+01    0.106E+01
DAV:   6    -0.401629160775E+03   -0.40613E+00   -0.50040E+00 19880   0.234E+01    0.772E+00
DAV:   7    -0.401395223568E+03    0.23394E+00   -0.91147E-01 17560   0.193E+01    0.283E+00
DAV:   8    -0.401383480629E+03    0.11743E-01   -0.43894E-01 21672   0.715E+00    0.960E-01
DAV:   9    -0.401386619625E+03   -0.31390E-02   -0.47288E-02 19448   0.278E+00    0.515E-01
DAV:  10    -0.401388686601E+03   -0.20670E-02   -0.16589E-02 21216   0.954E-01    0.440E-01
DAV:  11    -0.401387574624E+03    0.11120E-02   -0.27498E-03 19512   0.947E-01    0.222E-01
DAV:  12    -0.401387322286E+03    0.25234E-03   -0.92188E-04 21384   0.200E-01    0.130E-01
DAV:  13    -0.401387248016E+03    0.74270E-04   -0.29157E-04 20672   0.113E-01    0.588E-02
DAV:  14    -0.401387228099E+03    0.19918E-04   -0.19013E-04 19776   0.189E-01    0.185E-02
DAV:  15    -0.401387230634E+03   -0.25353E-05   -0.35533E-05 14672   0.668E-02    0.153E-02
DAV:  16    -0.401387228607E+03    0.20268E-05   -0.21853E-06  7920   0.204E-02    0.811E-03
DAV:  17    -0.401387227808E+03    0.79890E-06   -0.20975E-06  8000   0.140E-02
   1 F= -.40138723E+03 E0= -.40138723E+03  d E =0.000000E+00  mag=    -0.0000
