       N       E                     dE             d eps       ncg     rms          rms(c)
DAV:   1    -0.559290363204E+03   -0.55929E+03   -0.23009E+02 13304   0.179E+02    0.150E+02
DAV:   2    -0.438381763268E+03    0.12091E+03   -0.73968E+02 10696   0.495E+02    0.116E+02
DAV:   3    -0.380134211008E+03    0.58248E+02   -0.31679E+02 10880   0.419E+02    0.307E+01
DAV:   4    -0.391407585136E+03   -0.11273E+02   -0.14312E+02 15424   0.811E+01    0.149E+01
DAV:   5    -0.392949272267E+03   -0.15417E+01   -0.17464E+01 12800   0.404E+01    0.856E+00
DAV:   6    -0.393170686671E+03   -0.22141E+00   -0.40664E+00 14928   0.106E+01    0.311E+00
DAV:   7    -0.393193551252E+03   -0.22865E-01   -0.32169E-01 14432   0.542E+00    0.119E+00
DAV:   8    -0.393200763731E+03   -0.72125E-02   -0.49515E-02 14472   0.170E+00    0.645E-01
DAV:   9    -0.393200773664E+03   -0.99333E-05   -0.53624E-03 14776   0.586E-01    0.317E-01
DAV:  10    -0.393201050275E+03   -0.27661E-03   -0.17226E-03 14672   0.333E-01    0.612E-02
DAV:  11    -0.393201086455E+03   -0.36180E-04   -0.21624E-04 13392   0.137E-01    0.254E-02
DAV:  12    -0.393201113163E+03   -0.26708E-04   -0.43840E-05 13416   0.506E-02    0.107E-02
DAV:  13    -0.393201118895E+03   -0.57315E-05   -0.41507E-06  7536   0.251E-02    0.620E-03
DAV:  14    -0.393201120465E+03   -0.15704E-05   -0.10347E-06  5920   0.141E-02    0.184E-03
DAV:  15    -0.393201120372E+03    0.93278E-07   -0.68666E-07  5712   0.119E-02
   1 F= -.39320112E+03 E0= -.39320099E+03  d E =-.250751E-03  mag=    39.1110
