 vasp.5.4.4.18Apr17-6-g9f103f2a35 (build Oct 10 2019 09:51:33) complex          
  
 executed on   carbon_intel19_gpu date 2020.09.25  17:16:42
 running on    1 total cores
 distrk:  each k-point on    1 cores,    1 groups
 distr:  one band on NCORES_PER_BAND=   1 cores,    1 groups


--------------------------------------------------------------------------------------------------------


 INCAR:
 POTCAR:    PAW_PBE Ni_sv_GW 05Dec2013            
 POTCAR:    PAW_PBE O_GW 19Mar2012                
 POTCAR:    PAW_PBE Ni_sv_GW 05Dec2013            
   VRHFIN =Ni:                                                                  
   LEXCH  = PE                                                                  
   EATOM  =  4642.8712 eV,  341.2414 Ry                                         
                                                                                
   TITEL  = PAW_PBE Ni_sv_GW 05Dec2013                                          
   LULTRA =        F    use ultrasoft PP ?                                      
   IUNSCR =        1    unscreen: 0-lin 1-nonlin 2-no                           
   RPACOR =    1.400    partial core radius                                     
   POMASS =   58.690; ZVAL   =   18.000    mass and valenz                      
   RCORE  =    1.900    outmost cutoff radius                                   
   RWIGS  =    2.100; RWIGS  =    1.111    wigner-seitz radius (au A)           
   ENMAX  =  389.645; ENMIN  =  292.234 eV                                      
   RCLOC  =    1.301    cutoff for local pot                                    
   LCOR   =        T    correct aug charges                                     
   LPAW   =        T    paw PP                                                  
   EAUG   = 1036.387                                                            
   RMAX   =    1.945    core radius for proj-oper                               
   RAUG   =    1.300    factor for augmentation sphere                          
   RDEP   =    1.972    radius for radial grids                                 
   RDEPT  =    1.600    core radius for aug-charge                              
                                                                                
   Atomic configuration                                                         
    8 entries                                                                   
     n  l   j            E        occ.                                          
     1  0  0.50     -8203.3308   2.0000                                         
     2  0  0.50      -972.7019   2.0000                                         
     2  1  1.50      -835.6236   6.0000                                         
     3  0  0.50      -102.6944   2.0000                                         
     3  1  1.50       -63.2363   6.0000                                         
     3  1  1.50       -68.0291   0.0000                                         
     3  2  2.50        -1.9692  10.0000                                         
     4  3  2.50        -1.3606   0.0000                                         
   Description                                                                  
     l       E           TYP  RCUT    TYP  RCUT                                 
     0   -102.6944069     23  1.400                                             
     0      1.3605826     23  1.700                                             
     0    204.0873900     23  1.400                                             
     1    -63.2363356     23  1.650                                             
     1    -68.0291300     23  1.650                                             
     1    136.0582600     23  1.650                                             
     2     -1.9691936     23  1.900                                             
     2     27.2116520     23  1.900                                             
     2    136.0582600     23  1.900                                             
     3     27.2116520     23  1.900                                             
     3    136.0582600     23  1.900                                             
  local pseudopotential read in
  partial core-charges read in
  partial kinetic energy density read in
  kinetic energy density of atom read in
  atomic valenz-charges read in
  non local Contribution for L=           0  read in
    real space projection operators read in
  non local Contribution for L=           0  read in
    real space projection operators read in
  non local Contribution for L=           0  read in
    real space projection operators read in
  non local Contribution for L=           1  read in
    real space projection operators read in
  non local Contribution for L=           1  read in
    real space projection operators read in
  non local Contribution for L=           1  read in
    real space projection operators read in
  non local Contribution for L=           2  read in
    real space projection operators read in
  non local Contribution for L=           2  read in
    real space projection operators read in
  non local Contribution for L=           2  read in
    real space projection operators read in
  non local Contribution for L=           3  read in
    real space projection operators read in
  non local Contribution for L=           3  read in
    real space projection operators read in
    PAW grid and wavefunctions read in
 
   number of l-projection  operators is LMAX  =          11
   number of lm-projection operators is LMMAX =          41
 
 POTCAR:    PAW_PBE O_GW 19Mar2012                
   VRHFIN =O: s2p4                                                              
   LEXCH  = PE                                                                  
   EATOM  =   432.3788 eV,   31.7789 Ry                                         
                                                                                
   TITEL  = PAW_PBE O_GW 19Mar2012                                              
   LULTRA =        F    use ultrasoft PP ?                                      
   IUNSCR =        1    unscreen: 0-lin 1-nonlin 2-no                           
   RPACOR =    0.800    partial core radius                                     
   POMASS =   16.000; ZVAL   =    6.000    mass and valenz                      
   RCORE  =    1.600    outmost cutoff radius                                   
   RWIGS  =    1.600; RWIGS  =    0.847    wigner-seitz radius (au A)           
   ENMAX  =  434.431; ENMIN  =  325.824 eV                                      
   ICORE  =        3    local potential                                         
   LCOR   =        T    correct aug charges                                     
   LPAW   =        T    paw PP                                                  
   EAUG   = 1139.609                                                            
   DEXC   =    0.000                                                            
   RMAX   =    1.629    core radius for proj-oper                               
   RAUG   =    1.300    factor for augmentation sphere                          
   RDEP   =    1.652    radius for radial grids                                 
   RDEPT  =    1.200    core radius for aug-charge                              
                                                                                
   Atomic configuration                                                         
    5 entries                                                                   
     n  l   j            E        occ.                                          
     1  0  0.50      -514.6923   2.0000                                         
     2  0  0.50       -23.9615   2.0000                                         
     2  1  0.50        -9.0305   4.0000                                         
     3  2  1.50        -9.5241   0.0000                                         
     4  3  2.50        -9.5241   0.0000                                         
   Description                                                                  
     l       E           TYP  RCUT    TYP  RCUT                                 
     0    -23.9615316     23  1.150                                             
     0    -25.3221142     23  1.150                                             
     0    244.9048680     23  1.300                                             
     1     -9.0304908     23  1.500                                             
     1     -6.9258396     23  1.500                                             
     1    122.4524340     23  1.500                                             
     2     13.6058260     23  1.500                                             
     2    190.4815640     23  1.600                                             
     3     54.4233040     23  1.400                                             
  local pseudopotential read in
  partial core-charges read in
  partial kinetic energy density read in
  kinetic energy density of atom read in
  atomic valenz-charges read in
  non local Contribution for L=           0  read in
    real space projection operators read in
  non local Contribution for L=           0  read in
    real space projection operators read in
  non local Contribution for L=           0  read in
    real space projection operators read in
  non local Contribution for L=           1  read in
    real space projection operators read in
  non local Contribution for L=           1  read in
    real space projection operators read in
  non local Contribution for L=           1  read in
    real space projection operators read in
  non local Contribution for L=           2  read in
    real space projection operators read in
  non local Contribution for L=           2  read in
    real space projection operators read in
    PAW grid and wavefunctions read in
 
   number of l-projection  operators is LMAX  =           8
   number of lm-projection operators is LMMAX =          22
 
 Optimization of the real space projectors (new method)

 maximal supplied QI-value         = 19.84
 optimisation between [QCUT,QGAM] = [ 12.50, 25.00] = [ 43.76,175.03] Ry 
 Optimized for a Real-space Cutoff    1.31 Angstroem

   l    n(q)    QCUT    max X(q) W(low)/X(q) W(high)/X(q)  e(spline) 
   0     10    12.501     2.300    0.65E-05    0.25E-06    0.79E-07
   0     10    12.501     7.576    0.25E-04    0.52E-05    0.18E-06
   0     10    12.501     1.388    0.34E-04    0.75E-05    0.48E-06
   1      9    12.501    11.002    0.11E-03    0.24E-03    0.54E-06
   1      9    12.501    14.537    0.90E-04    0.23E-03    0.70E-06
   1      9    12.501     3.893    0.34E-04    0.51E-04    0.68E-06
   2      9    12.501    14.869    0.32E-03    0.35E-03    0.49E-06
   2      9    12.501     7.291    0.12E-03    0.20E-03    0.30E-06
   2      9    12.501     6.907    0.35E-03    0.37E-03    0.52E-06
   3      8    12.501    10.598    0.33E-03    0.15E-03    0.57E-06
   3      8    12.501     2.997    0.28E-03    0.16E-03    0.51E-06
 Optimization of the real space projectors (new method)

 maximal supplied QI-value         = 23.62
 optimisation between [QCUT,QGAM] = [ 12.52, 25.04] = [ 43.89,175.56] Ry 
 Optimized for a Real-space Cutoff    1.35 Angstroem

   l    n(q)    QCUT    max X(q) W(low)/X(q) W(high)/X(q)  e(spline) 
   0     10    12.519   116.464    0.13E-03    0.15E-03    0.46E-05
   0     10    12.519   116.329    0.13E-03    0.15E-03    0.44E-05
   0     10    12.519     0.942    0.35E-04    0.90E-04    0.23E-05
   1     10    12.519   133.003    0.28E-03    0.77E-04    0.26E-05
   1     10    12.519   116.443    0.28E-03    0.76E-04    0.26E-05
   1     10    12.519     2.481    0.45E-03    0.95E-04    0.45E-05
   2      9    12.519     2.237    0.21E-04    0.33E-04    0.21E-06
   2      9    12.519     2.497    0.16E-03    0.12E-03    0.32E-06
  PAW_PBE Ni_sv_GW 05Dec2013            :
 energy of atom  1       EATOM=-4642.8712
 kinetic energy error for atom=    0.0555 (will be added to EATOM!!)
  PAW_PBE O_GW 19Mar2012                :
 energy of atom  2       EATOM= -432.3788
 kinetic energy error for atom=    0.0188 (will be added to EATOM!!)
 
 
 POSCAR: NiO                                     
  positions in direct lattice
  No initial velocities read in
 exchange correlation table for  LEXCH =        8
   RHO(1)=    0.500       N(1)  =     2000
   RHO(2)=  100.500       N(2)  =     4000
 


--------------------------------------------------------------------------------------------------------


 ion  position               nearest neighbor table
   1  0.000  0.000  0.000-  36 2.09  38 2.09  45 2.09  50 2.09  53 2.09  64 2.09
   2  0.250  0.250  0.500-  33 2.09  39 2.09  46 2.09  51 2.09  54 2.09  61 2.09
   3  0.500  0.500  0.000-  34 2.09  40 2.09  47 2.09  52 2.09  55 2.09  62 2.09
   4  0.750  0.750  0.500-  35 2.09  37 2.09  48 2.09  49 2.09  56 2.09  63 2.09
   5  0.250  0.500  0.250-  33 2.09  40 2.09  42 2.09  52 2.09  54 2.09  57 2.09
   6  0.500  0.750  0.750-  34 2.09  37 2.09  43 2.09  49 2.09  55 2.09  58 2.09
   7  0.750  0.000  0.250-  35 2.09  38 2.09  44 2.09  50 2.09  56 2.09  59 2.09
   8  0.000  0.250  0.750-  36 2.09  39 2.09  41 2.09  51 2.09  53 2.09  60 2.09
   9  0.500  0.000  0.500-  37 2.09  44 2.09  46 2.09  56 2.09  58 2.09  61 2.09
  10  0.750  0.250  0.000-  38 2.09  41 2.09  47 2.09  53 2.09  59 2.09  62 2.09
  11  0.000  0.500  0.500-  39 2.09  42 2.09  48 2.09  54 2.09  60 2.09  63 2.09
  12  0.250  0.750  0.000-  40 2.09  43 2.09  45 2.09  55 2.09  57 2.09  64 2.09
  13  0.750  0.500  0.750-  34 2.09  41 2.09  48 2.09  49 2.09  60 2.09  62 2.09
  14  0.000  0.750  0.250-  35 2.09  42 2.09  45 2.09  50 2.09  57 2.09  63 2.09
  15  0.250  0.000  0.750-  36 2.09  43 2.09  46 2.09  51 2.09  58 2.09  64 2.09
  16  0.500  0.250  0.250-  33 2.09  44 2.09  47 2.09  52 2.09  59 2.09  61 2.09
  17  0.500  0.500  0.500-  34 2.09  37 2.09  48 2.09  52 2.09  54 2.09  61 2.09
  18  0.750  0.750  0.000-  35 2.09  38 2.09  45 2.09  49 2.09  55 2.09  62 2.09
  19  0.000  0.000  0.500-  36 2.09  39 2.09  46 2.09  50 2.09  56 2.09  63 2.09
  20  0.250  0.250  0.000-  33 2.09  40 2.09  47 2.09  51 2.09  53 2.09  64 2.09
  21  0.750  0.000  0.750-  36 2.09  38 2.09  41 2.09  49 2.09  56 2.09  58 2.09
  22  0.000  0.250  0.250-  33 2.09  39 2.09  42 2.09  50 2.09  53 2.09  59 2.09
  23  0.250  0.500  0.750-  34 2.09  40 2.09  43 2.09  51 2.09  54 2.09  60 2.09
  24  0.500  0.750  0.250-  35 2.09  37 2.09  44 2.09  52 2.09  55 2.09  57 2.09
  25  0.000  0.500  0.000-  40 2.09  42 2.09  45 2.09  53 2.09  60 2.09  62 2.09
  26  0.250  0.750  0.500-  37 2.09  43 2.09  46 2.09  54 2.09  57 2.09  63 2.09
  27  0.500  0.000  0.000-  38 2.09  44 2.09  47 2.09  55 2.09  58 2.09  64 2.09
  28  0.750  0.250  0.500-  39 2.09  41 2.09  48 2.09  56 2.09  59 2.09  61 2.09
  29  0.250  0.000  0.250-  33 2.09  44 2.09  46 2.09  50 2.09  57 2.09  64 2.09
  30  0.500  0.250  0.750-  34 2.09  41 2.09  47 2.09  51 2.09  58 2.09  61 2.09
  31  0.750  0.500  0.250-  35 2.09  42 2.09  48 2.09  52 2.09  59 2.09  62 2.09
  32  0.000  0.750  0.750-  36 2.09  43 2.09  45 2.09  49 2.09  60 2.09  63 2.09
  33  0.250  0.250  0.250-   2 2.09   5 2.09  16 2.09  20 2.09  22 2.09  29 2.09
  34  0.500  0.500  0.750-   3 2.09   6 2.09  13 2.09  17 2.09  23 2.09  30 2.09
  35  0.750  0.750  0.250-   4 2.09   7 2.09  14 2.09  18 2.09  24 2.09  31 2.09
  36  0.000  0.000  0.750-   1 2.09   8 2.09  15 2.09  19 2.09  21 2.09  32 2.09
  37  0.500  0.750  0.500-   4 2.09   6 2.09   9 2.09  17 2.09  24 2.09  26 2.09
  38  0.750  0.000  0.000-   1 2.09   7 2.09  10 2.09  18 2.09  21 2.09  27 2.09
  39  0.000  0.250  0.500-   2 2.09   8 2.09  11 2.09  19 2.09  22 2.09  28 2.09
  40  0.250  0.500  0.000-   3 2.09   5 2.09  12 2.09  20 2.09  23 2.09  25 2.09
  41  0.750  0.250  0.750-   8 2.09  10 2.09  13 2.09  21 2.09  28 2.09  30 2.09
  42  0.000  0.500  0.250-   5 2.09  11 2.09  14 2.09  22 2.09  25 2.09  31 2.09
  43  0.250  0.750  0.750-   6 2.09  12 2.09  15 2.09  23 2.09  26 2.09  32 2.09
  44  0.500  0.000  0.250-   7 2.09   9 2.09  16 2.09  24 2.09  27 2.09  29 2.09
  45  0.000  0.750  0.000-   1 2.09  12 2.09  14 2.09  18 2.09  25 2.09  32 2.09
  46  0.250  0.000  0.500-   2 2.09   9 2.09  15 2.09  19 2.09  26 2.09  29 2.09
  47  0.500  0.250  0.000-   3 2.09  10 2.09  16 2.09  20 2.09  27 2.09  30 2.09
  48  0.750  0.500  0.500-   4 2.09  11 2.09  13 2.09  17 2.09  28 2.09  31 2.09
  49  0.750  0.750  0.750-   4 2.09   6 2.09  13 2.09  18 2.09  21 2.09  32 2.09
  50  0.000  0.000  0.250-   1 2.09   7 2.09  14 2.09  19 2.09  22 2.09  29 2.09
  51  0.250  0.250  0.750-   2 2.09   8 2.09  15 2.09  20 2.09  23 2.09  30 2.09
  52  0.500  0.500  0.250-   3 2.09   5 2.09  16 2.09  17 2.09  24 2.09  31 2.09
  53  0.000  0.250  0.000-   1 2.09   8 2.09  10 2.09  20 2.09  22 2.09  25 2.09
  54  0.250  0.500  0.500-   2 2.09   5 2.09  11 2.09  17 2.09  23 2.09  26 2.09
  55  0.500  0.750  0.000-   3 2.09   6 2.09  12 2.09  18 2.09  24 2.09  27 2.09
  56  0.750  0.000  0.500-   4 2.09   7 2.09   9 2.09  19 2.09  21 2.09  28 2.09
  57  0.250  0.750  0.250-   5 2.09  12 2.09  14 2.09  24 2.09  26 2.09  29 2.09
  58  0.500  0.000  0.750-   6 2.09   9 2.09  15 2.09  21 2.09  27 2.09  30 2.09
  59  0.750  0.250  0.250-   7 2.09  10 2.09  16 2.09  22 2.09  28 2.09  31 2.09
  60  0.000  0.500  0.750-   8 2.09  11 2.09  13 2.09  23 2.09  25 2.09  32 2.09
  61  0.500  0.250  0.500-   2 2.09   9 2.09  16 2.09  17 2.09  28 2.09  30 2.09
  62  0.750  0.500  0.000-   3 2.09  10 2.09  13 2.09  18 2.09  25 2.09  31 2.09
  63  0.000  0.750  0.500-   4 2.09  11 2.09  14 2.09  19 2.09  26 2.09  32 2.09
  64  0.250  0.000  0.000-   1 2.09  12 2.09  15 2.09  20 2.09  27 2.09  29 2.09
 
  LATTYP: Found a simple cubic cell.
 ALAT       =     8.3781150000
  
  Lattice vectors:
  
 A1 = (   8.3781150000,   0.0000000000,   0.0000000000)
 A2 = (   0.0000000000,   8.3781150000,   0.0000000000)
 A3 = (   0.0000000000,   0.0000000000,   8.3781150000)


Analysis of symmetry for initial positions (statically):
=====================================================================
 Subroutine PRICEL returns following result:
 
  LATTYP: Found a face centered cubic cell.
 ALAT       =     4.1890575000
  
  Lattice vectors:
  
 A1 = (   2.0945287500,   2.0945287500,   0.0000000000)
 A2 = (   2.0945287500,   0.0000000000,  -2.0945287500)
 A3 = (   0.0000000000,   2.0945287500,  -2.0945287500)
 
  32 primitive cells build up your supercell.
 

 Routine SETGRP: Setting up the symmetry group for a 
 simple cubic supercell.


 Subroutine GETGRP returns: Found 48 space group operations
 (whereof 48 operations were pure point group operations)
 out of a pool of 48 trial point group operations.


The static configuration has the point symmetry O_h .


Analysis of symmetry for dynamics (positions and initial velocities):
=====================================================================
 Subroutine PRICEL returns following result:
 
  LATTYP: Found a face centered cubic cell.
 ALAT       =     4.1890575000
  
  Lattice vectors:
  
 A1 = (   2.0945287500,   2.0945287500,   0.0000000000)
 A2 = (   2.0945287500,   0.0000000000,  -2.0945287500)
 A3 = (   0.0000000000,   2.0945287500,  -2.0945287500)
 
  32 primitive cells build up your supercell.
 

 Routine SETGRP: Setting up the symmetry group for a 
 simple cubic supercell.


 Subroutine GETGRP returns: Found 48 space group operations
 (whereof 48 operations were pure point group operations)
 out of a pool of 48 trial point group operations.


The dynamic configuration has the point symmetry O_h .


Analysis of structural, dynamic, and magnetic symmetry:
=====================================================================
 Subroutine PRICEL returns following result:
 
  LATTYP: Found a face centered cubic cell.
 ALAT       =     4.1890575000
  
  Lattice vectors:
  
 A1 = (   2.0945287500,   2.0945287500,   0.0000000000)
 A2 = (   2.0945287500,   0.0000000000,  -2.0945287500)
 A3 = (   0.0000000000,   2.0945287500,  -2.0945287500)
 
  32 primitive cells build up your supercell.
 

 Routine SETGRP: Setting up the symmetry group for a 
 simple cubic supercell.


 Subroutine GETGRP returns: Found 12 space group operations
 (whereof 12 operations were pure point group operations)
 out of a pool of 48 trial point group operations.


The magnetic configuration has the point symmetry D_3d.


 Subroutine INISYM returns: Found 12 space group operations
 (whereof 12 operations are pure point group operations),
 and found    32 'primitive' translations

 
 
 KPOINTS: k-points                                

Automatic generation of k-mesh.
Space group operators:
 irot       det(A)        alpha          n_x          n_y          n_z        tau_x        tau_y        tau_z
    1     1.000000     0.000000     1.000000     0.000000     0.000000     0.000000     0.000000     0.000000
    2    -1.000000     0.000000     1.000000     0.000000     0.000000     0.000000     0.000000     0.000000
    3     1.000000   120.000000    -0.577350    -0.577350    -0.577350     0.000000     0.000000     0.000000
    4    -1.000000   120.000000    -0.577350    -0.577350    -0.577350     0.000000     0.000000     0.000000
    5     1.000000   120.000000     0.577350     0.577350     0.577350     0.000000     0.000000     0.000000
    6    -1.000000   120.000000     0.577350     0.577350     0.577350     0.000000     0.000000     0.000000
    7     1.000000   180.000000     0.000000    -0.707107     0.707107     0.000000     0.000000     0.000000
    8    -1.000000   180.000000     0.000000    -0.707107     0.707107     0.000000     0.000000     0.000000
    9     1.000000   180.000000     0.707107    -0.707107     0.000000     0.000000     0.000000     0.000000
   10    -1.000000   180.000000     0.707107    -0.707107     0.000000     0.000000     0.000000     0.000000
   11     1.000000   180.000000     0.707107     0.000000    -0.707107     0.000000     0.000000     0.000000
   12    -1.000000   180.000000     0.707107     0.000000    -0.707107     0.000000     0.000000     0.000000
 
 Subroutine IBZKPT returns following result:
 ===========================================
 
 Found      6 irreducible k-points:
 
 Following reciprocal coordinates:
            Coordinates               Weight
  0.000000  0.000000  0.000000      1.000000
  0.333333  0.000000  0.000000      6.000000
  0.333333  0.333333  0.000000      6.000000
 -0.333333  0.333333  0.000000      6.000000
  0.333333  0.333333  0.333333      2.000000
 -0.333333  0.333333  0.333333      6.000000
 
 Following cartesian coordinates:
            Coordinates               Weight
  0.000000  0.000000  0.000000      1.000000
  0.333333  0.000000  0.000000      6.000000
  0.333333  0.333333  0.000000      6.000000
 -0.333333  0.333333  0.000000      6.000000
  0.333333  0.333333  0.333333      2.000000
 -0.333333  0.333333  0.333333      6.000000
 


--------------------------------------------------------------------------------------------------------




 Dimension of arrays:
   k-points           NKPTS =      6   k-points in BZ     NKDIM =      6   number of bands    NBANDS=    460
   number of dos      NEDOS =    301   number of ions     NIONS =     64
   non local maximal  LDIM  =     11   non local SUM 2l+1 LMDIM =     41
   total plane-waves  NPLWV = 125000
   max r-space proj   IRMAX =   2220   max aug-charges    IRDMAX=   4892
   dimension x,y,z NGX =    50 NGY =   50 NGZ =   50
   dimension x,y,z NGXF=   100 NGYF=  100 NGZF=  100
   support grid    NGXF=   100 NGYF=  100 NGZF=  100
   ions per type =              32  32
   NGX,Y,Z   is equivalent  to a cutoff of   9.92,  9.92,  9.92 a.u.
   NGXF,Y,Z  is equivalent  to a cutoff of  19.84, 19.84, 19.84 a.u.

 SYSTEM =  NiO                                     
 POSCAR =  NiO                                     

 Startparameter for this run:
   NWRITE =      2    write-flag & timer
   PREC   = normal    normal or accurate (medium, high low for compatibility)
   ISTART =      1    job   : 0-new  1-cont  2-samecut
   ICHARG =      2    charge: 1-file 2-atom 10-const
   ISPIN  =      2    spin polarized calculation?
   LNONCOLLINEAR =      F non collinear calculations
   LSORBIT =      F    spin-orbit coupling
   INIWAV =      1    electr: 0-lowe 1-rand  2-diag
   LASPH  =      F    aspherical Exc in radial PAW
   METAGGA=      F    non-selfconsistent MetaGGA calc.

 Electronic Relaxation 1
   ENCUT  =  600.0 eV  44.10 Ry    6.64 a.u.  16.73 16.73 16.73*2*pi/ulx,y,z
   ENINI  =  600.0     initial cutoff
   ENAUG  = 1200.0 eV  augmentation charge cutoff
   NELM   =    100;   NELMIN=  2; NELMDL=  0     # of ELM steps 
   EDIFF  = 0.1E-05   stopping-criterion for ELM
   LREAL  =      T    real-space projection
   NLSPLINE    = F    spline interpolate recip. space projectors
   LCOMPAT=      F    compatible to vasp.4.4
   GGA_COMPAT  = T    GGA compatible to vasp.4.4-vasp.4.6
   LMAXPAW     = -100 max onsite density
   LMAXMIX     =    4 max onsite mixed and CHGCAR
   VOSKOWN=      0    Vosko Wilk Nusair interpolation
   ROPT   =   -0.00050  -0.00050
 Ionic relaxation
   EDIFFG = -.1E-03   stopping-criterion for IOM
   NSW    =      0    number of steps for IOM
   NBLOCK =      1;   KBLOCK =      1    inner block; outer block 
   IBRION =     -1    ionic relax: 0-MD 1-quasi-New 2-CG
   NFREE  =      1    steps in history (QN), initial steepest desc. (CG)
   ISIF   =      2    stress and relaxation
   IWAVPR =     10    prediction:  0-non 1-charg 2-wave 3-comb
   ISYM   =      2    0-nonsym 1-usesym 2-fastsym
   LCORR  =      T    Harris-Foulkes like correction to forces

   POTIM  = 0.2000    time-step for ionic-motion
   TEIN   =    0.0    initial temperature
   TEBEG  =    0.0;   TEEND  =   0.0 temperature during run
   SMASS  =  -3.00    Nose mass-parameter (am)
   estimated Nose-frequenzy (Omega)   =  0.10E-29 period in steps =****** mass=  -0.160E-26a.u.
   SCALEE = 1.0000    scale energy and forces
   NPACO  =    256;   APACO  = 16.0  distance and # of slots for P.C.
   PSTRESS=    0.0 pullay stress

  Mass of Ions in am
   POMASS =  58.69 16.00
  Ionic Valenz
   ZVAL   =  18.00  6.00
  Atomic Wigner-Seitz radii
   RWIGS  =  -1.00 -1.00
  virtual crystal weights 
   VCA    =   1.00  1.00
   NELECT =     768.0000    total number of electrons
   NUPDOWN=      -1.0000    fix difference up-down

 DOS related values:
   EMIN   =  10.00;   EMAX   =-10.00  energy-range for DOS
   EFERMI =   0.00
   ISMEAR =     0;   SIGMA  =   0.00  broadening in eV -4-tet -1-fermi 0-gaus

 Electronic relaxation 2 (details)
   IALGO  =     38    algorithm
   LDIAG  =      T    sub-space diagonalisation (order eigenvalues)
   LSUBROT=      F    optimize rotation matrix (better conditioning)
   TURBO    =      0    0=normal 1=particle mesh
   IRESTART =      0    0=no restart 2=restart with 2 vectors
   NREBOOT  =      0    no. of reboots
   NMIN     =      0    reboot dimension
   EREF     =   0.00    reference energy to select bands
   IMIX   =      4    mixing-type and parameters
     AMIX     =   0.40;   BMIX     =  1.00
     AMIX_MAG =   1.60;   BMIX_MAG =  1.00
     AMIN     =   0.10
     WC   =   100.;   INIMIX=   1;  MIXPRE=   1;  MAXMIX= -45

 Intra band minimization:
   WEIMIN = 0.0000     energy-eigenvalue tresh-hold
   EBREAK =  0.54E-09  absolut break condition
   DEPER  =   0.30     relativ break condition  

   TIME   =   0.40     timestep for ELM

  volume/ion in A,a.u.               =       9.19        62.01
  Fermi-wavevector in a.u.,A,eV,Ry     =   1.789434  3.381539 43.566843  3.202073
  Thomas-Fermi vector in A             =   2.852408
 
 Write flags
   LWAVE        =      T    write WAVECAR
   LDOWNSAMPLE  =      F    k-point downsampling of WAVECAR
   LCHARG       =      T    write CHGCAR
   LVTOT        =      F    write LOCPOT, total local potential
   LVHAR        =      F    write LOCPOT, Hartree potential only
   LELF         =      F    write electronic localiz. function (ELF)
   LORBIT       =     11    0 simple, 1 ext, 2 COOP (PROOUT), +10 PAW based schemes


 Dipole corrections
   LMONO  =      F    monopole corrections only (constant potential shift)
   LDIPOL =      F    correct potential (dipole corrections)
   IDIPOL =      0    1-x, 2-y, 3-z, 4-all directions 
   EPSILON=  1.0000000 bulk dielectric constant

 Exchange correlation treatment:
   GGA     =    --    GGA type
   LEXCH   =     8    internal setting for exchange type
   VOSKOWN=      0    Vosko Wilk Nusair interpolation
   LHFCALC =     F    Hartree Fock is set to
   LHFONE  =     F    Hartree Fock one center treatment
   AEXX    =    0.0000 exact exchange contribution

 Linear response parameters
   LEPSILON=     F    determine dielectric tensor
   LRPA    =     F    only Hartree local field effects (RPA)
   LNABLA  =     F    use nabla operator in PAW spheres
   LVEL    =     F    velocity operator in full k-point grid
   LINTERFAST=   F  fast interpolation
   KINTER  =     0    interpolate to denser k-point grid
   CSHIFT  =0.1000    complex shift for real part using Kramers Kronig
   OMEGAMAX=  -1.0    maximum frequency
   DEG_THRESHOLD= 0.2000000E-02 threshold for treating states as degnerate
   RTIME   =   -0.100 relaxation time in fs
  (WPLASMAI=    0.000 imaginary part of plasma frequency in eV, 0.658/RTIME)
   DFIELD  = 0.0000000 0.0000000 0.0000000 field for delta impulse in time
 
 Orbital magnetization related:
   ORBITALMAG=     F  switch on orbital magnetization
   LCHIMAG   =     F  perturbation theory with respect to B field
   DQ        =  0.001000  dq finite difference perturbation B field
   LLRAUG    =     F  two centre corrections for induced B field



--------------------------------------------------------------------------------------------------------


 Static calculation
 charge density and potential will be updated during run
 spin polarized calculation
 Variant of blocked Davidson
 Davidson routine will perform the subspace rotation
 perform sub-space diagonalisation
    after iterative eigenvector-optimisation
 modified Broyden-mixing scheme, WC =      100.0
 initial mixing is a Kerker type mixing with AMIX =  0.4000 and BMIX =      1.0000
 Hartree-type preconditioning will be used
 using additional bands           76
 real space projection scheme for non local part
 use partial core corrections
 calculate Harris-corrections to forces 
   (improved forces if not selfconsistent)
 use gradient corrections 
 use of overlap-Matrix (Vanderbilt PP)
 Gauss-broadening in eV      SIGMA  =   0.00


--------------------------------------------------------------------------------------------------------


  energy-cutoff  :      600.00
  volume of cell :      588.08
      direct lattice vectors                 reciprocal lattice vectors
     8.378115000  0.000000000  0.000000000     0.119358591  0.000000000  0.000000000
     0.000000000  8.378115000  0.000000000     0.000000000  0.119358591  0.000000000
     0.000000000  0.000000000  8.378115000     0.000000000  0.000000000  0.119358591

  length of vectors
     8.378115000  8.378115000  8.378115000     0.119358591  0.119358591  0.119358591


 
 old parameters found on file WAVECAR:
  energy-cutoff  :      600.00
  volume of cell :      576.56
      direct lattice vectors                 reciprocal lattice vectors
     8.323012000  0.000000000  0.000000000     0.120148812  0.000000000  0.000000000
     0.000000000  8.323012000  0.000000000     0.000000000  0.120148812  0.000000000
     0.000000000  0.000000000  8.323012000     0.000000000  0.000000000  0.120148812

  length of vectors

 
 k-points in units of 2pi/SCALE and weight: k-points                                
   0.00000000  0.00000000  0.00000000       0.037
   0.33333333  0.00000000  0.00000000       0.222
   0.33333333  0.33333333  0.00000000       0.222
  -0.33333333  0.33333333  0.00000000       0.222
   0.33333333  0.33333333  0.33333333       0.074
  -0.33333333  0.33333333  0.33333333       0.222
 
 k-points in reciprocal lattice and weights: k-points                                
   0.00000000  0.00000000  0.00000000       0.037
   0.33333333  0.00000000  0.00000000       0.222
   0.33333333  0.33333333  0.00000000       0.222
  -0.33333333  0.33333333  0.00000000       0.222
   0.33333333  0.33333333  0.33333333       0.074
  -0.33333333  0.33333333  0.33333333       0.222
 
 position of ions in fractional coordinates (direct lattice) 
   0.00000000  0.00000000  0.00000000
   0.25000000  0.25000000  0.50000000
   0.50000000  0.50000000  0.00000000
   0.75000000  0.75000000  0.50000000
   0.25000000  0.50000000  0.25000000
   0.50000000  0.75000000  0.75000000
   0.75000000  0.00000000  0.25000000
   0.00000000  0.25000000  0.75000000
   0.50000000  0.00000000  0.50000000
   0.75000000  0.25000000  0.00000000
   0.00000000  0.50000000  0.50000000
   0.25000000  0.75000000  0.00000000
   0.75000000  0.50000000  0.75000000
   0.00000000  0.75000000  0.25000000
   0.25000000  0.00000000  0.75000000
   0.50000000  0.25000000  0.25000000
   0.50000000  0.50000000  0.50000000
   0.75000000  0.75000000  0.00000000
   0.00000000  0.00000000  0.50000000
   0.25000000  0.25000000  0.00000000
   0.75000000  0.00000000  0.75000000
   0.00000000  0.25000000  0.25000000
   0.25000000  0.50000000  0.75000000
   0.50000000  0.75000000  0.25000000
   0.00000000  0.50000000  0.00000000
   0.25000000  0.75000000  0.50000000
   0.50000000  0.00000000  0.00000000
   0.75000000  0.25000000  0.50000000
   0.25000000  0.00000000  0.25000000
   0.50000000  0.25000000  0.75000000
   0.75000000  0.50000000  0.25000000
   0.00000000  0.75000000  0.75000000
   0.25000000  0.25000000  0.25000000
   0.50000000  0.50000000  0.75000000
   0.75000000  0.75000000  0.25000000
   0.00000000  0.00000000  0.75000000
   0.50000000  0.75000000  0.50000000
   0.75000000  0.00000000  0.00000000
   0.00000000  0.25000000  0.50000000
   0.25000000  0.50000000  0.00000000
   0.75000000  0.25000000  0.75000000
   0.00000000  0.50000000  0.25000000
   0.25000000  0.75000000  0.75000000
   0.50000000  0.00000000  0.25000000
   0.00000000  0.75000000  0.00000000
   0.25000000  0.00000000  0.50000000
   0.50000000  0.25000000  0.00000000
   0.75000000  0.50000000  0.50000000
   0.75000000  0.75000000  0.75000000
   0.00000000  0.00000000  0.25000000
   0.25000000  0.25000000  0.75000000
   0.50000000  0.50000000  0.25000000
   0.00000000  0.25000000  0.00000000
   0.25000000  0.50000000  0.50000000
   0.50000000  0.75000000  0.00000000
   0.75000000  0.00000000  0.50000000
   0.25000000  0.75000000  0.25000000
   0.50000000  0.00000000  0.75000000
   0.75000000  0.25000000  0.25000000
   0.00000000  0.50000000  0.75000000
   0.50000000  0.25000000  0.50000000
   0.75000000  0.50000000  0.00000000
   0.00000000  0.75000000  0.50000000
   0.25000000  0.00000000  0.00000000
 
 position of ions in cartesian coordinates  (Angst):
   0.00000000  0.00000000  0.00000000
   2.09452875  2.09452875  4.18905750
   4.18905750  4.18905750  0.00000000
   6.28358625  6.28358625  4.18905750
   2.09452875  4.18905750  2.09452875
   4.18905750  6.28358625  6.28358625
   6.28358625  0.00000000  2.09452875
   0.00000000  2.09452875  6.28358625
   4.18905750  0.00000000  4.18905750
   6.28358625  2.09452875  0.00000000
   0.00000000  4.18905750  4.18905750
   2.09452875  6.28358625  0.00000000
   6.28358625  4.18905750  6.28358625
   0.00000000  6.28358625  2.09452875
   2.09452875  0.00000000  6.28358625
   4.18905750  2.09452875  2.09452875
   4.18905750  4.18905750  4.18905750
   6.28358625  6.28358625  0.00000000
   0.00000000  0.00000000  4.18905750
   2.09452875  2.09452875  0.00000000
   6.28358625  0.00000000  6.28358625
   0.00000000  2.09452875  2.09452875
   2.09452875  4.18905750  6.28358625
   4.18905750  6.28358625  2.09452875
   0.00000000  4.18905750  0.00000000
   2.09452875  6.28358625  4.18905750
   4.18905750  0.00000000  0.00000000
   6.28358625  2.09452875  4.18905750
   2.09452875  0.00000000  2.09452875
   4.18905750  2.09452875  6.28358625
   6.28358625  4.18905750  2.09452875
   0.00000000  6.28358625  6.28358625
   2.09452875  2.09452875  2.09452875
   4.18905750  4.18905750  6.28358625
   6.28358625  6.28358625  2.09452875
   0.00000000  0.00000000  6.28358625
   4.18905750  6.28358625  4.18905750
   6.28358625  0.00000000  0.00000000
   0.00000000  2.09452875  4.18905750
   2.09452875  4.18905750  0.00000000
   6.28358625  2.09452875  6.28358625
   0.00000000  4.18905750  2.09452875
   2.09452875  6.28358625  6.28358625
   4.18905750  0.00000000  2.09452875
   0.00000000  6.28358625  0.00000000
   2.09452875  0.00000000  4.18905750
   4.18905750  2.09452875  0.00000000
   6.28358625  4.18905750  4.18905750
   6.28358625  6.28358625  6.28358625
   0.00000000  0.00000000  2.09452875
   2.09452875  2.09452875  6.28358625
   4.18905750  4.18905750  2.09452875
   0.00000000  2.09452875  0.00000000
   2.09452875  4.18905750  4.18905750
   4.18905750  6.28358625  0.00000000
   6.28358625  0.00000000  4.18905750
   2.09452875  6.28358625  2.09452875
   4.18905750  0.00000000  6.28358625
   6.28358625  2.09452875  2.09452875
   0.00000000  4.18905750  6.28358625
   4.18905750  2.09452875  4.18905750
   6.28358625  4.18905750  0.00000000
   0.00000000  6.28358625  4.18905750
   2.09452875  0.00000000  0.00000000
 


--------------------------------------------------------------------------------------------------------


 k-point  1 :   0.0000 0.0000 0.0000  plane waves:   19549
 k-point  2 :   0.3333 0.0000 0.0000  plane waves:   19654
 k-point  3 :   0.3333 0.3333 0.0000  plane waves:   19586
 k-point  4 :  -0.3333 0.3333 0.0000  plane waves:   19586
 k-point  5 :   0.3333 0.3333 0.3333  plane waves:   19603
 k-point  6 :  -0.3333 0.3333 0.3333  plane waves:   19603

 maximum and minimum number of plane-waves per node :     19654    19549

 maximum number of plane-waves:     19654
 maximum index in each direction: 
   IXMAX=   17   IYMAX=   16   IZMAX=   16
   IXMIN=  -17   IYMIN=  -17   IZMIN=  -17


 serial   3D FFT for wavefunctions
 parallel 3D FFT for charge:
    minimum data exchange during FFTs selected (reduces bandwidth)


 total amount of memory used by VASP MPI-rank0  2118346. kBytes
=======================================================================

   base      :      30000. kBytes
   nonlr-proj:      38044. kBytes
   fftplans  :      34720. kBytes
   grid      :      91360. kBytes
   one-center:      10328. kBytes
   wavefun   :    1913894. kBytes
 
     INWAV:  cpu time    1.4886: real time    1.4881
 Broyden mixing: mesh for mixing (old mesh)
   NGX = 33   NGY = 33   NGZ = 33
  (NGX  =100   NGY  =100   NGZ  =100)
  gives a total of  35937 points

 initial charge density was supplied:
 charge density of overlapping atoms calculated
 number of electron     768.0000000 magnetization       0.0000000
 keeping initial charge density in first step


--------------------------------------------------------------------------------------------------------


 Maximum index for non-local projection operator         2176
 Maximum index for augmentation-charges         4553 (set IRDMAX)


--------------------------------------------------------------------------------------------------------


 First call to EWALD:  gamma=   0.212
 Maximum number of real-space cells 3x 3x 3
 Maximum number of reciprocal cells 3x 3x 3

    FEWALD:  cpu time    0.0139: real time    0.0139


----------------------------------------- Iteration    1(   1)  ---------------------------------------


    POTLOK:  cpu time    0.9948: real time    0.9944
    SETDIJ:  cpu time    0.3916: real time    0.3914
     EDDAV:  cpu time   20.4683: real time   20.4897
       DOS:  cpu time    0.0086: real time    0.0086
    CHARGE:  cpu time    4.3299: real time    4.3293
    MIXING:  cpu time    0.0207: real time    0.0207
    --------------------------------------------
      LOOP:  cpu time   26.2164: real time   26.2366

 eigenvalue-minimisations  : 19376
 total energy-change (2. order) :-0.4691060E+03  (-0.2622718E+03)
 number of electron     768.0004696 magnetization       0.0000000
 augmentation part      287.0348362 magnetization       0.0000000

 Broyden mixing:
  rms(total) = 0.17134E+02    rms(broyden)= 0.17127E+02
  rms(prec ) = 0.19782E+02
  weight for this iteration     100.00

 Free energy of the ion-electron system (eV)
  ---------------------------------------------------
  alpha Z        PSCENC =      5395.69248661
  Ewald energy   TEWEN  =   -103725.60568214
  -Hartree energ DENC   =    -49998.04745549
  -exchange      EXHF   =         0.00000000
  -V(xc)+E(xc)   XCENC  =      5192.96730621
  PAW double counting   =    134449.21163418  -140263.96355224
  entropy T*S    EENTRO =        -0.00028090
  eigenvalues    EBANDS =    -13924.98283576
  atomic energy  EATOM  =    162405.62235658
  Solvation  Ediel_sol  =         0.00000000
  ---------------------------------------------------
  free energy    TOTEN  =      -469.10602295 eV

  energy without entropy =     -469.10574204  energy(sigma->0) =     -469.10588249


--------------------------------------------------------------------------------------------------------




----------------------------------------- Iteration    1(   2)  ---------------------------------------


    POTLOK:  cpu time    0.9710: real time    0.9707
    SETDIJ:  cpu time    0.3992: real time    0.3992
     EDDAV:  cpu time   19.7445: real time   19.7687
       DOS:  cpu time    0.0076: real time    0.0076
    CHARGE:  cpu time    4.3702: real time    4.3697
    MIXING:  cpu time    0.0252: real time    0.0253
    --------------------------------------------
      LOOP:  cpu time   25.5185: real time   25.5419

 eigenvalue-minimisations  : 18736
 total energy-change (2. order) :-0.2547550E+02  (-0.2338278E+03)
 number of electron     768.0005521 magnetization       0.0000000
 augmentation part      337.6912379 magnetization       0.0000000

 Broyden mixing:
  rms(total) = 0.12280E+02    rms(broyden)= 0.12279E+02
  rms(prec ) = 0.15166E+02
  weight for this iteration     100.00

 eigenvalues of (default mixing * dielectric matrix)
  average eigenvalue GAMMA=   0.5275
  0.5275

 Free energy of the ion-electron system (eV)
  ---------------------------------------------------
  alpha Z        PSCENC =      5395.69248661
  Ewald energy   TEWEN  =   -103725.60568214
  -Hartree energ DENC   =    -46825.16060495
  -exchange      EXHF   =         0.00000000
  -V(xc)+E(xc)   XCENC  =      5113.96132992
  PAW double counting   =    135631.88863158  -141109.76033994
  entropy T*S    EENTRO =        -0.00011431
  eigenvalues    EBANDS =    -17381.21958702
  atomic energy  EATOM  =    162405.62235658
  Solvation  Ediel_sol  =         0.00000000
  ---------------------------------------------------
  free energy    TOTEN  =      -494.58152366 eV

  energy without entropy =     -494.58140935  energy(sigma->0) =     -494.58146651


--------------------------------------------------------------------------------------------------------




----------------------------------------- Iteration    1(   3)  ---------------------------------------


    POTLOK:  cpu time    0.9662: real time    0.9658
    SETDIJ:  cpu time    0.4001: real time    0.4001
     EDDAV:  cpu time   17.3399: real time   17.3732
       DOS:  cpu time    0.0011: real time    0.0011
    CHARGE:  cpu time    4.3426: real time    4.3421
    MIXING:  cpu time    0.0283: real time    0.0283
    --------------------------------------------
      LOOP:  cpu time   23.0789: real time   23.1113

 eigenvalue-minimisations  : 15532
 total energy-change (2. order) : 0.1006266E+03  (-0.6768384E+02)
 number of electron     768.0004207 magnetization       0.0000000
 augmentation part      306.2866725 magnetization       0.0000000

 Broyden mixing:
  rms(total) = 0.38703E+01    rms(broyden)= 0.38563E+01
  rms(prec ) = 0.43382E+01
  weight for this iteration     100.00

 eigenvalues of (default mixing * dielectric matrix)
  average eigenvalue GAMMA=   0.6585
  0.8486  0.4684

 Free energy of the ion-electron system (eV)
  ---------------------------------------------------
  alpha Z        PSCENC =      5395.69248661
  Ewald energy   TEWEN  =   -103725.60568214
  -Hartree energ DENC   =    -48518.42772550
  -exchange      EXHF   =         0.00000000
  -V(xc)+E(xc)   XCENC  =      5150.96828681
  PAW double counting   =    140221.36330270  -146221.14492789
  entropy T*S    EENTRO =         0.00000000
  eigenvalues    EBANDS =    -15102.42297640
  atomic energy  EATOM  =    162405.62235658
  Solvation  Ediel_sol  =         0.00000000
  ---------------------------------------------------
  free energy    TOTEN  =      -393.95487924 eV

  energy without entropy =     -393.95487924  energy(sigma->0) =     -393.95487924


--------------------------------------------------------------------------------------------------------




----------------------------------------- Iteration    1(   4)  ---------------------------------------


    POTLOK:  cpu time    0.9650: real time    0.9647
    SETDIJ:  cpu time    0.3984: real time    0.3983
     EDDAV:  cpu time   22.0223: real time   22.0412
       DOS:  cpu time    0.0011: real time    0.0011
    CHARGE:  cpu time    4.3481: real time    4.3475
    MIXING:  cpu time    0.0346: real time    0.0346
    --------------------------------------------
      LOOP:  cpu time   27.7701: real time   27.7880

 eigenvalue-minimisations  : 21448
 total energy-change (2. order) :-0.1116571E+02  (-0.1348492E+02)
 number of electron     768.0004296 magnetization       0.0000000
 augmentation part      305.8590806 magnetization       0.0000000

 Broyden mixing:
  rms(total) = 0.22074E+01    rms(broyden)= 0.22052E+01
  rms(prec ) = 0.27390E+01
  weight for this iteration     100.00

 eigenvalues of (default mixing * dielectric matrix)
  average eigenvalue GAMMA=   0.7796
  0.8986  0.8986  0.5417

 Free energy of the ion-electron system (eV)
  ---------------------------------------------------
  alpha Z        PSCENC =      5395.69248661
  Ewald energy   TEWEN  =   -103725.60568214
  -Hartree energ DENC   =    -48243.08878807
  -exchange      EXHF   =         0.00000000
  -V(xc)+E(xc)   XCENC  =      5147.74427566
  PAW double counting   =    140717.38576277  -146712.90115235
  entropy T*S    EENTRO =         0.00000000
  eigenvalues    EBANDS =    -15389.96984397
  atomic energy  EATOM  =    162405.62235658
  Solvation  Ediel_sol  =         0.00000000
  ---------------------------------------------------
  free energy    TOTEN  =      -405.12058490 eV

  energy without entropy =     -405.12058490  energy(sigma->0) =     -405.12058490


--------------------------------------------------------------------------------------------------------




----------------------------------------- Iteration    1(   5)  ---------------------------------------


    POTLOK:  cpu time    0.9645: real time    0.9641
    SETDIJ:  cpu time    0.3992: real time    0.3992
     EDDAV:  cpu time   21.9547: real time   21.9536
       DOS:  cpu time    0.0011: real time    0.0011
    CHARGE:  cpu time    4.3302: real time    4.3291
    MIXING:  cpu time    0.0357: real time    0.0357
    --------------------------------------------
      LOOP:  cpu time   27.6861: real time   27.6836

 eigenvalue-minimisations  : 21408
 total energy-change (2. order) : 0.3897558E+01  (-0.1934937E+01)
 number of electron     768.0004444 magnetization      -0.0000000
 augmentation part      309.9933889 magnetization      -0.0000000

 Broyden mixing:
  rms(total) = 0.10568E+01    rms(broyden)= 0.10565E+01
  rms(prec ) = 0.11268E+01
  weight for this iteration     100.00

 eigenvalues of (default mixing * dielectric matrix)
  average eigenvalue GAMMA=   0.9029
  1.2386  1.2386  0.5673  0.5673

 Free energy of the ion-electron system (eV)
  ---------------------------------------------------
  alpha Z        PSCENC =      5395.69248661
  Ewald energy   TEWEN  =   -103725.60568214
  -Hartree energ DENC   =    -47865.73669075
  -exchange      EXHF   =         0.00000000
  -V(xc)+E(xc)   XCENC  =      5139.38819114
  PAW double counting   =    140313.84868895  -146327.89369993
  entropy T*S    EENTRO =         0.00000000
  eigenvalues    EBANDS =    -15736.53867705
  atomic energy  EATOM  =    162405.62235658
  Solvation  Ediel_sol  =         0.00000000
  ---------------------------------------------------
  free energy    TOTEN  =      -401.22302659 eV

  energy without entropy =     -401.22302659  energy(sigma->0) =     -401.22302659


--------------------------------------------------------------------------------------------------------




----------------------------------------- Iteration    1(   6)  ---------------------------------------


    POTLOK:  cpu time    0.9556: real time    0.9551
    SETDIJ:  cpu time    0.3983: real time    0.3981
     EDDAV:  cpu time   20.5566: real time   20.5865
       DOS:  cpu time    0.0012: real time    0.0012
    CHARGE:  cpu time    4.3185: real time    4.3174
    MIXING:  cpu time    0.0399: real time    0.0400
    --------------------------------------------
      LOOP:  cpu time   26.2709: real time   26.2989

 eigenvalue-minimisations  : 19880
 total energy-change (2. order) :-0.4061342E+00  (-0.5003976E+00)
 number of electron     768.0004458 magnetization      -0.0000000
 augmentation part      310.2066382 magnetization      -0.0000000

 Broyden mixing:
  rms(total) = 0.77239E+00    rms(broyden)= 0.77234E+00
  rms(prec ) = 0.90948E+00
  weight for this iteration     100.00

 eigenvalues of (default mixing * dielectric matrix)
  average eigenvalue GAMMA=   1.0843
  2.2638  1.2592  0.6720  0.6720  0.5548

 Free energy of the ion-electron system (eV)
  ---------------------------------------------------
  alpha Z        PSCENC =      5395.69248661
  Ewald energy   TEWEN  =   -103725.60568214
  -Hartree energ DENC   =    -47755.37331723
  -exchange      EXHF   =         0.00000000
  -V(xc)+E(xc)   XCENC  =      5137.67742597
  PAW double counting   =    140472.39372333  -146536.38666096
  entropy T*S    EENTRO =         0.00000000
  eigenvalues    EBANDS =    -15795.64949293
  atomic energy  EATOM  =    162405.62235658
  Solvation  Ediel_sol  =         0.00000000
  ---------------------------------------------------
  free energy    TOTEN  =      -401.62916078 eV

  energy without entropy =     -401.62916078  energy(sigma->0) =     -401.62916078


--------------------------------------------------------------------------------------------------------




----------------------------------------- Iteration    1(   7)  ---------------------------------------


    POTLOK:  cpu time    0.9662: real time    0.9657
    SETDIJ:  cpu time    0.4033: real time    0.4032
     EDDAV:  cpu time   19.0127: real time   19.0206
       DOS:  cpu time    0.0011: real time    0.0011
    CHARGE:  cpu time    4.2730: real time    4.2726
    MIXING:  cpu time    0.0446: real time    0.0445
    --------------------------------------------
      LOOP:  cpu time   24.7015: real time   24.7083

 eigenvalue-minimisations  : 17560
 total energy-change (2. order) : 0.2339372E+00  (-0.9114730E-01)
 number of electron     768.0004431 magnetization      -0.0000000
 augmentation part      309.4900702 magnetization      -0.0000000

 Broyden mixing:
  rms(total) = 0.28313E+00    rms(broyden)= 0.28300E+00
  rms(prec ) = 0.33951E+00
  weight for this iteration     100.00

 eigenvalues of (default mixing * dielectric matrix)
  average eigenvalue GAMMA=   1.0911
  2.3969  1.4683  0.7577  0.7577  0.5830  0.5830

 Free energy of the ion-electron system (eV)
  ---------------------------------------------------
  alpha Z        PSCENC =      5395.69248661
  Ewald energy   TEWEN  =   -103725.60568214
  -Hartree energ DENC   =    -47778.19509601
  -exchange      EXHF   =         0.00000000
  -V(xc)+E(xc)   XCENC  =      5138.04971566
  PAW double counting   =    140643.73456475  -146720.81512246
  entropy T*S    EENTRO =         0.00000000
  eigenvalues    EBANDS =    -15759.87844656
  atomic energy  EATOM  =    162405.62235658
  Solvation  Ediel_sol  =         0.00000000
  ---------------------------------------------------
  free energy    TOTEN  =      -401.39522357 eV

  energy without entropy =     -401.39522357  energy(sigma->0) =     -401.39522357


--------------------------------------------------------------------------------------------------------




----------------------------------------- Iteration    1(   8)  ---------------------------------------


    POTLOK:  cpu time    0.9656: real time    0.9653
    SETDIJ:  cpu time    0.4024: real time    0.4022
     EDDAV:  cpu time   22.2071: real time   22.2490
       DOS:  cpu time    0.0009: real time    0.0009
    CHARGE:  cpu time    4.2981: real time    4.2976
    MIXING:  cpu time    0.0436: real time    0.0436
    --------------------------------------------
      LOOP:  cpu time   27.9184: real time   27.9593

 eigenvalue-minimisations  : 21672
 total energy-change (2. order) : 0.1174294E-01  (-0.4389393E-01)
 number of electron     768.0004420 magnetization      -0.0000000
 augmentation part      309.1292744 magnetization      -0.0000000

 Broyden mixing:
  rms(total) = 0.95953E-01    rms(broyden)= 0.95731E-01
  rms(prec ) = 0.10397E+00
  weight for this iteration     100.00

 eigenvalues of (default mixing * dielectric matrix)
  average eigenvalue GAMMA=   1.0852
  2.3253  1.7069  0.8328  0.8328  0.6232  0.6232  0.6521

 Free energy of the ion-electron system (eV)
  ---------------------------------------------------
  alpha Z        PSCENC =      5395.69248661
  Ewald energy   TEWEN  =   -103725.60568214
  -Hartree energ DENC   =    -47807.35955693
  -exchange      EXHF   =         0.00000000
  -V(xc)+E(xc)   XCENC  =      5138.64171071
  PAW double counting   =    140725.15362523  -146797.51503765
  entropy T*S    EENTRO =         0.00000000
  eigenvalues    EBANDS =    -15736.01338304
  atomic energy  EATOM  =    162405.62235658
  Solvation  Ediel_sol  =         0.00000000
  ---------------------------------------------------
  free energy    TOTEN  =      -401.38348063 eV

  energy without entropy =     -401.38348063  energy(sigma->0) =     -401.38348063


--------------------------------------------------------------------------------------------------------




----------------------------------------- Iteration    1(   9)  ---------------------------------------


    POTLOK:  cpu time    0.9590: real time    0.9587
    SETDIJ:  cpu time    0.4009: real time    0.4007
     EDDAV:  cpu time   20.1865: real time   20.2135
       DOS:  cpu time    0.0009: real time    0.0009
    CHARGE:  cpu time    4.2709: real time    4.2703
    MIXING:  cpu time    0.0552: real time    0.0551
    --------------------------------------------
      LOOP:  cpu time   25.8740: real time   25.8999

 eigenvalue-minimisations  : 19448
 total energy-change (2. order) :-0.3138997E-02  (-0.4728765E-02)
 number of electron     768.0004422 magnetization      -0.0000000
 augmentation part      309.1754750 magnetization      -0.0000000

 Broyden mixing:
  rms(total) = 0.51486E-01    rms(broyden)= 0.51481E-01
  rms(prec ) = 0.56461E-01
  weight for this iteration     100.00

 eigenvalues of (default mixing * dielectric matrix)
  average eigenvalue GAMMA=   1.1396
  2.3455  1.5265  1.5265  1.0657  0.7384  0.7384  0.5880  0.5880

 Free energy of the ion-electron system (eV)
  ---------------------------------------------------
  alpha Z        PSCENC =      5395.69248661
  Ewald energy   TEWEN  =   -103725.60568214
  -Hartree energ DENC   =    -47810.29252491
  -exchange      EXHF   =         0.00000000
  -V(xc)+E(xc)   XCENC  =      5138.91072215
  PAW double counting   =    140730.05807652  -146800.89795392
  entropy T*S    EENTRO =         0.00000000
  eigenvalues    EBANDS =    -15734.87410050
  atomic energy  EATOM  =    162405.62235658
  Solvation  Ediel_sol  =         0.00000000
  ---------------------------------------------------
  free energy    TOTEN  =      -401.38661963 eV

  energy without entropy =     -401.38661963  energy(sigma->0) =     -401.38661963


--------------------------------------------------------------------------------------------------------




----------------------------------------- Iteration    1(  10)  ---------------------------------------


    POTLOK:  cpu time    0.9659: real time    0.9659
    SETDIJ:  cpu time    0.4014: real time    0.4013
     EDDAV:  cpu time   21.8959: real time   21.9192
       DOS:  cpu time    0.0009: real time    0.0009
    CHARGE:  cpu time    4.2938: real time    4.2926
    MIXING:  cpu time    0.0524: real time    0.0524
    --------------------------------------------
      LOOP:  cpu time   27.6109: real time   27.6328

 eigenvalue-minimisations  : 21216
 total energy-change (2. order) :-0.2066976E-02  (-0.1658863E-02)
 number of electron     768.0004422 magnetization      -0.0000000
 augmentation part      309.1458988 magnetization      -0.0000000

 Broyden mixing:
  rms(total) = 0.44025E-01    rms(broyden)= 0.44017E-01
  rms(prec ) = 0.56121E-01
  weight for this iteration     100.00

 eigenvalues of (default mixing * dielectric matrix)
  average eigenvalue GAMMA=   1.1133
  2.4985  1.6668  1.6668  0.7902  0.7902  0.8158  0.6119  0.6119  0.5673

 Free energy of the ion-electron system (eV)
  ---------------------------------------------------
  alpha Z        PSCENC =      5395.69248661
  Ewald energy   TEWEN  =   -103725.60568214
  -Hartree energ DENC   =    -47818.20954624
  -exchange      EXHF   =         0.00000000
  -V(xc)+E(xc)   XCENC  =      5139.40603737
  PAW double counting   =    140755.25321128  -146825.10189784
  entropy T*S    EENTRO =         0.00000000
  eigenvalues    EBANDS =    -15728.44565222
  atomic energy  EATOM  =    162405.62235658
  Solvation  Ediel_sol  =         0.00000000
  ---------------------------------------------------
  free energy    TOTEN  =      -401.38868660 eV

  energy without entropy =     -401.38868660  energy(sigma->0) =     -401.38868660


--------------------------------------------------------------------------------------------------------




----------------------------------------- Iteration    1(  11)  ---------------------------------------


    POTLOK:  cpu time    0.9569: real time    0.9565
    SETDIJ:  cpu time    0.4019: real time    0.4018
     EDDAV:  cpu time   20.3413: real time   20.3702
       DOS:  cpu time    0.0010: real time    0.0010
    CHARGE:  cpu time    4.2699: real time    4.2688
    MIXING:  cpu time    0.0651: real time    0.0651
    --------------------------------------------
      LOOP:  cpu time   26.0370: real time   26.0641

 eigenvalue-minimisations  : 19512
 total energy-change (2. order) : 0.1111977E-02  (-0.2749797E-03)
 number of electron     768.0004421 magnetization      -0.0000000
 augmentation part      309.1235715 magnetization      -0.0000000

 Broyden mixing:
  rms(total) = 0.22222E-01    rms(broyden)= 0.22213E-01
  rms(prec ) = 0.28322E-01
  weight for this iteration     100.00

 eigenvalues of (default mixing * dielectric matrix)
  average eigenvalue GAMMA=   1.0857
  2.5446  1.8745  1.5438  0.7581  0.7581  0.8174  0.6946  0.6946  0.5855  0.5855

 Free energy of the ion-electron system (eV)
  ---------------------------------------------------
  alpha Z        PSCENC =      5395.69248661
  Ewald energy   TEWEN  =   -103725.60568214
  -Hartree energ DENC   =    -47820.75022814
  -exchange      EXHF   =         0.00000000
  -V(xc)+E(xc)   XCENC  =      5139.44128055
  PAW double counting   =    140771.00769086  -146839.66508458
  entropy T*S    EENTRO =         0.00000000
  eigenvalues    EBANDS =    -15727.13039436
  atomic energy  EATOM  =    162405.62235658
  Solvation  Ediel_sol  =         0.00000000
  ---------------------------------------------------
  free energy    TOTEN  =      -401.38757462 eV

  energy without entropy =     -401.38757462  energy(sigma->0) =     -401.38757462


--------------------------------------------------------------------------------------------------------




----------------------------------------- Iteration    1(  12)  ---------------------------------------


    POTLOK:  cpu time    0.9656: real time    0.9651
    SETDIJ:  cpu time    0.4008: real time    0.4007
     EDDAV:  cpu time   22.0950: real time   22.1036
       DOS:  cpu time    0.0011: real time    0.0011
    CHARGE:  cpu time    4.3682: real time    4.3670
    MIXING:  cpu time    0.0605: real time    0.0605
    --------------------------------------------
      LOOP:  cpu time   27.8918: real time   27.8987

 eigenvalue-minimisations  : 21384
 total energy-change (2. order) : 0.2523373E-03  (-0.9218777E-04)
 number of electron     768.0004421 magnetization      -0.0000000
 augmentation part      309.1230856 magnetization      -0.0000000

 Broyden mixing:
  rms(total) = 0.13007E-01    rms(broyden)= 0.13002E-01
  rms(prec ) = 0.15903E-01
  weight for this iteration     100.00

 eigenvalues of (default mixing * dielectric matrix)
  average eigenvalue GAMMA=   1.1760
  2.6727  1.9916  1.9916  1.0054  1.0054  0.9776  0.7310  0.7310  0.6003  0.6003
  0.6295

 Free energy of the ion-electron system (eV)
  ---------------------------------------------------
  alpha Z        PSCENC =      5395.69248661
  Ewald energy   TEWEN  =   -103725.60568214
  -Hartree energ DENC   =    -47821.02877923
  -exchange      EXHF   =         0.00000000
  -V(xc)+E(xc)   XCENC  =      5139.42144795
  PAW double counting   =    140778.32964323  -146846.26145703
  entropy T*S    EENTRO =         0.00000000
  eigenvalues    EBANDS =    -15727.55733825
  atomic energy  EATOM  =    162405.62235658
  Solvation  Ediel_sol  =         0.00000000
  ---------------------------------------------------
  free energy    TOTEN  =      -401.38732229 eV

  energy without entropy =     -401.38732229  energy(sigma->0) =     -401.38732229


--------------------------------------------------------------------------------------------------------




----------------------------------------- Iteration    1(  13)  ---------------------------------------


    POTLOK:  cpu time    0.9535: real time    0.9532
    SETDIJ:  cpu time    0.4017: real time    0.4015
     EDDAV:  cpu time   21.3371: real time   21.3593
       DOS:  cpu time    0.0011: real time    0.0011
    CHARGE:  cpu time    4.3423: real time    4.3419
    MIXING:  cpu time    0.0752: real time    0.0753
    --------------------------------------------
      LOOP:  cpu time   27.1115: real time   27.1328

 eigenvalue-minimisations  : 20672
 total energy-change (2. order) : 0.7427006E-04  (-0.2915684E-04)
 number of electron     768.0004421 magnetization      -0.0000000
 augmentation part      309.1243615 magnetization      -0.0000000

 Broyden mixing:
  rms(total) = 0.58774E-02    rms(broyden)= 0.58703E-02
  rms(prec ) = 0.70896E-02
  weight for this iteration     100.00

 eigenvalues of (default mixing * dielectric matrix)
  average eigenvalue GAMMA=   1.1590
  2.5805  2.0606  2.0606  1.0175  1.0175  0.9552  0.9552  0.7063  0.7063  0.6767
  0.5861  0.5861

 Free energy of the ion-electron system (eV)
  ---------------------------------------------------
  alpha Z        PSCENC =      5395.69248661
  Ewald energy   TEWEN  =   -103725.60568214
  -Hartree energ DENC   =    -47821.40649776
  -exchange      EXHF   =         0.00000000
  -V(xc)+E(xc)   XCENC  =      5139.41229919
  PAW double counting   =    140786.95524833  -146854.43852044
  entropy T*S    EENTRO =         0.00000000
  eigenvalues    EBANDS =    -15727.61893838
  atomic energy  EATOM  =    162405.62235658
  Solvation  Ediel_sol  =         0.00000000
  ---------------------------------------------------
  free energy    TOTEN  =      -401.38724802 eV

  energy without entropy =     -401.38724802  energy(sigma->0) =     -401.38724802


--------------------------------------------------------------------------------------------------------




----------------------------------------- Iteration    1(  14)  ---------------------------------------


    POTLOK:  cpu time    0.9646: real time    0.9643
    SETDIJ:  cpu time    0.4022: real time    0.4021
     EDDAV:  cpu time   20.7562: real time   20.7857
       DOS:  cpu time    0.0011: real time    0.0011
    CHARGE:  cpu time    4.3411: real time    4.3405
    MIXING:  cpu time    0.0741: real time    0.0741
    --------------------------------------------
      LOOP:  cpu time   26.5400: real time   26.5684

 eigenvalue-minimisations  : 19776
 total energy-change (2. order) : 0.1991773E-04  (-0.1901273E-04)
 number of electron     768.0004420 magnetization       0.0000000
 augmentation part      309.1112843 magnetization       0.0000000

 Broyden mixing:
  rms(total) = 0.18463E-02    rms(broyden)= 0.18376E-02
  rms(prec ) = 0.22064E-02
  weight for this iteration     100.00

 eigenvalues of (default mixing * dielectric matrix)
  average eigenvalue GAMMA=   1.1637
  2.4479  2.1759  2.1759  1.0042  1.0042  1.1148  1.1148  0.7916  0.7916  0.5868
  0.5868  0.6670  0.6670

 Free energy of the ion-electron system (eV)
  ---------------------------------------------------
  alpha Z        PSCENC =      5395.69248661
  Ewald energy   TEWEN  =   -103725.60568214
  -Hartree energ DENC   =    -47822.31585911
  -exchange      EXHF   =         0.00000000
  -V(xc)+E(xc)   XCENC  =      5139.43314766
  PAW double counting   =    140788.89550231  -146856.55281803
  entropy T*S    EENTRO =         0.00000000
  eigenvalues    EBANDS =    -15726.55636198
  atomic energy  EATOM  =    162405.62235658
  Solvation  Ediel_sol  =         0.00000000
  ---------------------------------------------------
  free energy    TOTEN  =      -401.38722810 eV

  energy without entropy =     -401.38722810  energy(sigma->0) =     -401.38722810


--------------------------------------------------------------------------------------------------------




----------------------------------------- Iteration    1(  15)  ---------------------------------------


    POTLOK:  cpu time    0.9531: real time    0.9528
    SETDIJ:  cpu time    0.4013: real time    0.4014
     EDDAV:  cpu time   16.8865: real time   16.9191
       DOS:  cpu time    0.0011: real time    0.0011
    CHARGE:  cpu time    4.3394: real time    4.3390
    MIXING:  cpu time    0.0820: real time    0.0821
    --------------------------------------------
      LOOP:  cpu time   22.6641: real time   22.6960

 eigenvalue-minimisations  : 14672
 total energy-change (2. order) :-0.2535264E-05  (-0.3553279E-05)
 number of electron     768.0004420 magnetization      -0.0000000
 augmentation part      309.1120639 magnetization      -0.0000000

 Broyden mixing:
  rms(total) = 0.15344E-02    rms(broyden)= 0.15344E-02
  rms(prec ) = 0.18748E-02
  weight for this iteration     100.00

 eigenvalues of (default mixing * dielectric matrix)
  average eigenvalue GAMMA=   1.1892
  2.4828  2.4828  2.1581  1.4499  1.0704  1.0704  1.0743  0.8495  0.8495  0.6817
  0.6817  0.5932  0.5932  0.6114

 Free energy of the ion-electron system (eV)
  ---------------------------------------------------
  alpha Z        PSCENC =      5395.69248661
  Ewald energy   TEWEN  =   -103725.60568214
  -Hartree energ DENC   =    -47822.28883681
  -exchange      EXHF   =         0.00000000
  -V(xc)+E(xc)   XCENC  =      5139.43233226
  PAW double counting   =    140787.99014585  -146855.67814308
  entropy T*S    EENTRO =         0.00000000
  eigenvalues    EBANDS =    -15726.55188991
  atomic energy  EATOM  =    162405.62235658
  Solvation  Ediel_sol  =         0.00000000
  ---------------------------------------------------
  free energy    TOTEN  =      -401.38723063 eV

  energy without entropy =     -401.38723063  energy(sigma->0) =     -401.38723063


--------------------------------------------------------------------------------------------------------




----------------------------------------- Iteration    1(  16)  ---------------------------------------


    POTLOK:  cpu time    0.9617: real time    0.9614
    SETDIJ:  cpu time    0.4019: real time    0.4017
     EDDAV:  cpu time   11.4930: real time   11.5153
       DOS:  cpu time    0.0011: real time    0.0011
    CHARGE:  cpu time    4.3331: real time    4.3327
    MIXING:  cpu time    0.0953: real time    0.0954
    --------------------------------------------
      LOOP:  cpu time   17.2867: real time   17.3080

 eigenvalue-minimisations  :  7920
 total energy-change (2. order) : 0.2026820E-05  (-0.2185304E-06)
 number of electron     768.0004420 magnetization       0.0000000
 augmentation part      309.1120334 magnetization       0.0000000

 Broyden mixing:
  rms(total) = 0.81067E-03    rms(broyden)= 0.81058E-03
  rms(prec ) = 0.10429E-02
  weight for this iteration     100.00

 eigenvalues of (default mixing * dielectric matrix)
  average eigenvalue GAMMA=   1.2049
  2.6743  2.6743  1.9254  1.7264  1.0334  1.0334  1.0663  1.0663  0.9685  0.7252
  0.7252  0.5867  0.5867  0.6408  0.6408

 Free energy of the ion-electron system (eV)
  ---------------------------------------------------
  alpha Z        PSCENC =      5395.69248661
  Ewald energy   TEWEN  =   -103725.60568214
  -Hartree energ DENC   =    -47822.30526141
  -exchange      EXHF   =         0.00000000
  -V(xc)+E(xc)   XCENC  =      5139.43513712
  PAW double counting   =    140787.38047089  -146855.10739220
  entropy T*S    EENTRO =         0.00000000
  eigenvalues    EBANDS =    -15726.49934405
  atomic energy  EATOM  =    162405.62235658
  Solvation  Ediel_sol  =         0.00000000
  ---------------------------------------------------
  free energy    TOTEN  =      -401.38722861 eV

  energy without entropy =     -401.38722861  energy(sigma->0) =     -401.38722861


--------------------------------------------------------------------------------------------------------




----------------------------------------- Iteration    1(  17)  ---------------------------------------


    POTLOK:  cpu time    0.9590: real time    0.9585
    SETDIJ:  cpu time    0.4017: real time    0.4017
     EDDAV:  cpu time   11.7115: real time   11.7266
       DOS:  cpu time    0.0011: real time    0.0011
    --------------------------------------------
      LOOP:  cpu time   13.0738: real time   13.0884

 eigenvalue-minimisations  :  8000
 total energy-change (2. order) : 0.7989001E-06  (-0.2097484E-06)
 number of electron     768.0004420 magnetization       0.0000000
 augmentation part      309.1120334 magnetization       0.0000000

 Free energy of the ion-electron system (eV)
  ---------------------------------------------------
  alpha Z        PSCENC =      5395.69248661
  Ewald energy   TEWEN  =   -103725.60568214
  -Hartree energ DENC   =    -47822.33376647
  -exchange      EXHF   =         0.00000000
  -V(xc)+E(xc)   XCENC  =      5139.43771179
  PAW double counting   =    140787.11643150  -146854.85712250
  entropy T*S    EENTRO =         0.00000000
  eigenvalues    EBANDS =    -15726.45964317
  atomic energy  EATOM  =    162405.62235658
  Solvation  Ediel_sol  =         0.00000000
  ---------------------------------------------------
  free energy    TOTEN  =      -401.38722781 eV

  energy without entropy =     -401.38722781  energy(sigma->0) =     -401.38722781


--------------------------------------------------------------------------------------------------------




 average (electrostatic) potential at core
  the test charge radii are     0.8614  0.6768
  (the norm of the test charge is              1.0000)
       1 -79.9009       2 -79.9009       3 -79.9009       4 -79.9009       5 -79.9009
       6 -79.9009       7 -79.9009       8 -79.9009       9 -79.9009      10 -79.9009
      11 -79.9009      12 -79.9009      13 -79.9009      14 -79.9009      15 -79.9009
      16 -79.9009      17 -79.9009      18 -79.9009      19 -79.9009      20 -79.9009
      21 -79.9009      22 -79.9009      23 -79.9009      24 -79.9009      25 -79.9009
      26 -79.9009      27 -79.9009      28 -79.9009      29 -79.9009      30 -79.9009
      31 -79.9009      32 -79.9009      33-113.9425      34-113.9425      35-113.9425
      36-113.9425      37-113.9425      38-113.9425      39-113.9425      40-113.9425
      41-113.9425      42-113.9425      43-113.9425      44-113.9425      45-113.9425
      46-113.9425      47-113.9425      48-113.9425      49-113.9425      50-113.9425
      51-113.9425      52-113.9425      53-113.9425      54-113.9425      55-113.9425
      56-113.9425      57-113.9425      58-113.9425      59-113.9425      60-113.9425
      61-113.9425      62-113.9425      63-113.9425      64-113.9425
 
 
 
 E-fermi :   7.3322     XC(G=0): -12.9988     alpha+bet :-12.5760


 spin component 1

 k-point     1 :       0.0000    0.0000    0.0000
  band No.  band energies     occupation 
      1     -96.6761      1.00000
      2     -96.6750      1.00000
      3     -96.6750      1.00000
      4     -96.6750      1.00000
      5     -96.6750      1.00000
      6     -96.6750      1.00000
      7     -96.6750      1.00000
      8     -96.6747      1.00000
      9     -96.6747      1.00000
     10     -96.6747      1.00000
     11     -96.6747      1.00000
     12     -96.6747      1.00000
     13     -96.6747      1.00000
     14     -96.6746      1.00000
     15     -96.6746      1.00000
     16     -96.6746      1.00000
     17     -95.0135      1.00000
     18     -95.0123      1.00000
     19     -95.0123      1.00000
     20     -95.0123      1.00000
     21     -95.0123      1.00000
     22     -95.0123      1.00000
     23     -95.0123      1.00000
     24     -95.0119      1.00000
     25     -95.0119      1.00000
     26     -95.0119      1.00000
     27     -95.0119      1.00000
     28     -95.0119      1.00000
     29     -95.0119      1.00000
     30     -95.0119      1.00000
     31     -95.0119      1.00000
     32     -95.0119      1.00000
     33     -57.0904      1.00000
     34     -57.0884      1.00000
     35     -57.0884      1.00000
     36     -57.0884      1.00000
     37     -57.0884      1.00000
     38     -57.0884      1.00000
     39     -57.0884      1.00000
     40     -57.0872      1.00000
     41     -57.0872      1.00000
     42     -57.0872      1.00000
     43     -57.0871      1.00000
     44     -57.0871      1.00000
     45     -57.0871      1.00000
     46     -57.0871      1.00000
     47     -57.0871      1.00000
     48     -57.0871      1.00000
     49     -57.0816      1.00000
     50     -57.0816      1.00000
     51     -57.0816      1.00000
     52     -57.0774      1.00000
     53     -57.0774      1.00000
     54     -57.0774      1.00000
     55     -57.0774      1.00000
     56     -57.0774      1.00000
     57     -57.0774      1.00000
     58     -57.0701      1.00000
     59     -57.0701      1.00000
     60     -57.0701      1.00000
     61     -57.0701      1.00000
     62     -57.0701      1.00000
     63     -57.0701      1.00000
     64     -57.0690      1.00000
     65     -57.0690      1.00000
     66     -57.0690      1.00000
     67     -57.0690      1.00000
     68     -57.0690      1.00000
     69     -57.0690      1.00000
     70     -57.0648      1.00000
     71     -57.0648      1.00000
     72     -57.0647      1.00000
     73     -57.0613      1.00000
     74     -57.0613      1.00000
     75     -57.0613      1.00000
     76     -57.0613      1.00000
     77     -57.0613      1.00000
     78     -57.0613      1.00000
     79     -57.0590      1.00000
     80     -57.0590      1.00000
     81     -55.4621      1.00000
     82     -55.4621      1.00000
     83     -55.4621      1.00000
     84     -55.4576      1.00000
     85     -55.4576      1.00000
     86     -55.4576      1.00000
     87     -55.4576      1.00000
     88     -55.4576      1.00000
     89     -55.4576      1.00000
     90     -55.4569      1.00000
     91     -55.4551      1.00000
     92     -55.4551      1.00000
     93     -55.4551      1.00000
     94     -55.4551      1.00000
     95     -55.4551      1.00000
     96     -55.4551      1.00000
     97     -55.4536      1.00000
     98     -55.4536      1.00000
     99     -55.4536      1.00000
    100     -55.4536      1.00000
    101     -55.4536      1.00000
    102     -55.4536      1.00000
    103     -55.4536      1.00000
    104     -55.4536      1.00000
    105     -55.4536      1.00000
    106     -55.4495      1.00000
    107     -55.4495      1.00000
    108     -55.4495      1.00000
    109     -55.4495      1.00000
    110     -55.4495      1.00000
    111     -55.4495      1.00000
    112     -55.4483      1.00000
    113     -55.4483      1.00000
    114     -55.4483      1.00000
    115     -55.4482      1.00000
    116     -55.4482      1.00000
    117     -55.4482      1.00000
    118     -55.4436      1.00000
    119     -55.4436      1.00000
    120     -55.4436      1.00000
    121     -55.4399      1.00000
    122     -55.4399      1.00000
    123     -55.4399      1.00000
    124     -55.4399      1.00000
    125     -55.4399      1.00000
    126     -55.4399      1.00000
    127     -55.4373      1.00000
    128     -55.4373      1.00000
    129     -12.7239      1.00000
    130     -11.9681      1.00000
    131     -11.9681      1.00000
    132     -11.9681      1.00000
    133     -11.9681      1.00000
    134     -11.9681      1.00000
    135     -11.9681      1.00000
    136     -11.4844      1.00000
    137     -11.4844      1.00000
    138     -11.4844      1.00000
    139     -11.4844      1.00000
    140     -11.4844      1.00000
    141     -11.4844      1.00000
    142     -11.4842      1.00000
    143     -11.4842      1.00000
    144     -11.4842      1.00000
    145     -11.4841      1.00000
    146     -11.4841      1.00000
    147     -11.4841      1.00000
    148     -11.3598      1.00000
    149     -11.3594      1.00000
    150     -11.3594      1.00000
    151     -11.3593      1.00000
    152     -11.2951      1.00000
    153     -11.2951      1.00000
    154     -11.2951      1.00000
    155     -11.1889      1.00000
    156     -11.1889      1.00000
    157     -11.1889      1.00000
    158     -11.1889      1.00000
    159     -11.1889      1.00000
    160     -11.1889      1.00000
    161      -0.5518      1.00000
    162      -0.5517      1.00000
    163      -0.5517      1.00000
    164      -0.5474      1.00000
    165       0.4555      1.00000
    166       0.4555      1.00000
    167       0.4555      1.00000
    168       0.4555      1.00000
    169       0.4555      1.00000
    170       0.4555      1.00000
    171       0.4571      1.00000
    172       0.4571      1.00000
    173       0.4571      1.00000
    174       0.4571      1.00000
    175       0.4571      1.00000
    176       0.4571      1.00000
    177       0.7119      1.00000
    178       0.7119      1.00000
    179       0.7119      1.00000
    180       1.1981      1.00000
    181       1.1981      1.00000
    182       1.1981      1.00000
    183       1.1981      1.00000
    184       1.1981      1.00000
    185       1.1981      1.00000
    186       1.4991      1.00000
    187       1.4991      1.00000
    188       1.4991      1.00000
    189       1.4991      1.00000
    190       1.4991      1.00000
    191       1.4991      1.00000
    192       1.5045      1.00000
    193       1.5045      1.00000
    194       1.5045      1.00000
    195       1.5045      1.00000
    196       1.5045      1.00000
    197       1.5045      1.00000
    198       1.8594      1.00000
    199       1.8594      1.00000
[...]
   -.113E-12 0.111E-10 -.140E-10   -.144E-12 0.302E-13 -.117E-13   -.122E-21 -.134E-21 0.381E-22   -.794E-12 0.820E-13 -.887E-12
   0.167E-11 -.361E-10 0.134E-10   -.105E-12 0.284E-13 -.917E-13   -.926E-22 -.397E-22 -.331E-22   0.147E-11 -.560E-12 0.187E-11
   0.650E-12 0.552E-12 0.402E-12   -.107E-12 -.114E-12 0.451E-13   -.112E-21 0.728E-22 -.106E-21   0.872E-12 0.232E-12 -.766E-12
   0.997E-12 0.725E-11 -.246E-11   -.353E-13 -.114E-12 -.349E-13   0.298E-22 0.331E-22 -.128E-21   -.129E-12 0.730E-12 0.201E-11
   0.172E-11 0.600E-12 -.541E-10   0.111E-13 -.923E-13 -.142E-13   0.232E-22 -.993E-23 0.000E+00   0.154E-11 -.123E-12 -.198E-12
   0.547E-12 0.114E-11 0.781E-12   -.711E-14 -.355E-13 -.149E-12   -.298E-22 -.112E-21 -.172E-21   0.118E-11 0.512E-12 -.756E-12
   0.999E-12 -.898E-11 0.936E-11   0.497E-13 -.118E-12 -.185E-12   -.119E-21 -.331E-22 0.993E-23   -.873E-13 0.137E-12 -.662E-13
   -.907E-13 -.740E-11 0.118E-10   0.711E-13 0.711E-14 -.149E-12   -.728E-22 -.562E-22 -.918E-22   -.113E-11 -.446E-12 -.877E-12
   0.645E-12 0.283E-13 0.752E-12   0.185E-12 -.182E-12 -.113E-12   -.101E-21 0.199E-22 0.596E-22   0.874E-12 0.187E-12 0.211E-11
   0.106E-11 0.109E-12 -.114E-10   0.171E-12 -.639E-13 -.225E-12   0.695E-22 0.281E-22 -.463E-22   -.381E-13 -.208E-12 -.113E-11
   -.169E-13 0.383E-12 -.599E-10   0.114E-12 -.108E-12 -.170E-12   0.149E-22 -.423E-22 -.910E-23   -.103E-11 -.266E-12 0.198E-11
   0.174E-11 0.995E-12 -.189E-10   0.129E-12 -.977E-13 -.253E-12   -.364E-22 -.105E-21 -.463E-22   0.142E-11 0.689E-12 -.513E-12
   0.118E-11 0.358E-12 0.159E-10   0.298E-12 -.853E-13 -.227E-12   -.132E-22 -.414E-22 0.860E-22   -.273E-12 0.202E-12 -.978E-12
   -.174E-13 0.147E-11 0.269E-11   0.291E-12 -.853E-13 -.341E-12   -.529E-22 0.430E-22 0.265E-22   -.101E-11 0.752E-12 -.370E-12
   0.174E-11 -.946E-11 -.837E-11   0.352E-12 -.223E-12 -.284E-12   -.100E-21 -.331E-22 -.794E-22   0.142E-11 0.164E-12 -.727E-12
   0.704E-12 0.146E-11 0.137E-11   0.355E-12 -.107E-12 -.256E-12   -.157E-21 0.298E-22 -.131E-21   0.629E-12 -.320E-12 -.976E-13
   0.108E-12 -.180E-11 0.102E-11   -.764E-13 0.142E-13 0.853E-13   -.463E-22 -.993E-23 0.115E-22   -.344E-12 0.168E-12 -.371E-12
   0.259E-13 0.575E-11 0.489E-11   -.764E-13 0.252E-13 -.506E-13   0.132E-22 -.331E-23 -.827E-23   -.430E-12 -.158E-13 0.229E-12
   0.468E-12 -.811E-11 0.116E-10   -.195E-13 0.666E-13 0.293E-13   -.331E-23 0.165E-22 -.240E-22   0.468E-12 -.138E-12 -.335E-12
   0.196E-12 0.379E-12 0.390E-12   -.639E-13 -.568E-13 -.497E-13   0.168E-22 0.331E-23 0.827E-23   0.356E-12 -.445E-13 0.183E-12
   0.174E-13 0.550E-11 0.431E-11   -.400E-13 0.533E-14 0.746E-13   -.331E-23 -.476E-23 0.000E+00   -.506E-12 -.156E-12 -.404E-12
   0.463E-12 0.366E-12 0.212E-11   -.383E-13 0.151E-13 -.637E-13   0.641E-23 -.215E-22 -.744E-23   0.533E-12 -.970E-13 0.862E-12
   0.261E-12 0.138E-12 0.322E-12   -.338E-13 -.711E-13 0.160E-13   0.232E-22 -.165E-22 0.178E-22   0.271E-12 0.988E-13 -.400E-12
   0.631E-13 0.988E-12 -.105E-10   -.266E-13 -.584E-13 -.628E-13   -.298E-22 -.223E-22 0.136E-22   -.276E-12 -.578E-13 0.892E-12
   0.504E-12 0.160E-10 -.821E-11   -.663E-14 0.115E-13 0.870E-13   -.331E-23 0.199E-22 0.538E-22   0.502E-12 0.241E-12 0.120E-12
   0.187E-12 0.217E-12 0.157E-12   -.444E-14 0.299E-13 -.862E-13   -.993E-23 -.190E-22 -.132E-22   0.420E-12 -.479E-13 -.328E-12
   0.129E-12 -.793E-12 0.224E-11   0.569E-13 -.568E-13 0.284E-13   -.165E-22 -.827E-23 -.103E-22   -.374E-12 -.208E-12 0.172E-12
   -.408E-13 0.329E-12 0.190E-10   0.711E-13 -.453E-13 -.171E-12   -.662E-23 0.145E-22 0.186E-22   -.496E-12 -.480E-13 -.228E-12
   0.259E-12 0.306E-12 0.450E-12   0.213E-13 0.355E-13 0.763E-13   -.108E-22 0.248E-22 -.662E-23   0.258E-12 -.222E-12 0.792E-12
   0.928E-13 0.375E-12 -.939E-11   0.782E-13 0.356E-13 -.945E-13   -.165E-22 0.414E-24 -.165E-23   -.331E-12 -.533E-13 -.328E-12
   0.429E-13 0.181E-10 -.119E-10   0.853E-13 0.711E-13 0.133E-13   -.550E-22 -.910E-23 0.265E-22   -.575E-12 0.240E-12 0.830E-12
   0.512E-12 0.507E-11 -.102E-11   0.427E-13 0.785E-13 -.186E-12   -.265E-22 -.240E-22 0.157E-22   0.485E-12 -.781E-14 -.249E-12
   0.413E-12 0.162E-11 -.454E-11   0.140E-12 0.142E-13 0.266E-14   -.240E-22 0.215E-22 -.662E-23   0.570E-12 -.270E-12 0.261E-12
   0.285E-12 0.288E-12 0.145E-12   0.128E-12 0.142E-13 0.711E-13   -.199E-22 0.124E-23 0.331E-22   0.324E-12 0.351E-13 -.290E-12
   0.381E-13 0.396E-11 0.232E-11   0.710E-13 0.568E-13 -.568E-13   0.993E-23 -.827E-23 -.164E-22   -.297E-12 0.108E-12 0.257E-12
   0.609E-13 0.490E-11 0.824E-11   0.933E-13 0.441E-13 0.782E-13   -.331E-23 0.116E-22 -.414E-22   -.589E-12 0.558E-13 -.316E-12
   0.180E-12 0.122E-12 0.368E-12   0.206E-12 0.355E-13 -.142E-13   -.116E-22 -.199E-22 0.331E-23   0.421E-12 0.122E-12 0.860E-12
   0.408E-13 0.975E-12 0.619E-12   0.199E-12 0.502E-13 0.646E-13   0.401E-22 -.496E-23 0.496E-23   -.280E-12 0.457E-13 -.423E-12
   -.472E-13 0.263E-11 -.120E-10   0.149E-12 0.853E-13 -.728E-13   -.199E-22 -.116E-22 0.207E-22   -.418E-12 -.242E-12 0.908E-12
   0.465E-12 0.328E-12 -.140E-11   0.185E-12 0.711E-13 0.654E-13   -.827E-23 0.141E-22 0.954E-23   0.477E-12 0.398E-13 -.382E-12
   0.717E-13 0.427E-11 0.246E-11   0.192E-12 -.711E-14 -.355E-13   -.430E-22 -.190E-22 -.517E-25   -.268E-12 -.263E-12 -.243E-12
   0.477E-13 0.294E-12 0.318E-11   0.199E-12 0.360E-14 0.178E-12   0.336E-23 0.132E-22 0.370E-22   -.520E-12 0.199E-13 0.134E-12
   0.434E-12 0.492E-11 -.127E-11   0.245E-12 0.391E-13 -.941E-13   -.199E-22 -.331E-23 0.232E-22   0.545E-12 0.108E-12 -.197E-12
   0.223E-12 -.136E-12 -.200E-12   0.275E-12 0.261E-13 0.790E-13   0.188E-22 0.662E-23 0.827E-24   0.260E-12 0.299E-13 0.194E-12
   -.396E-13 0.739E-11 0.827E-11   0.258E-12 0.213E-13 -.381E-13   -.232E-22 -.827E-23 0.199E-22   -.424E-12 0.141E-12 -.327E-12
   0.489E-12 -.971E-12 0.130E-10   0.248E-12 0.287E-13 0.156E-12   -.343E-22 0.157E-22 0.281E-22   0.479E-12 0.127E-12 0.723E-12
   0.195E-12 -.282E-12 -.431E-13   0.181E-12 0.568E-13 -.991E-13   0.993E-23 0.149E-22 0.364E-22   0.343E-12 -.194E-12 -.303E-12
   0.947E-13 0.272E-12 -.329E-12   0.192E-12 0.507E-13 0.639E-13   -.207E-22 0.381E-22 0.149E-22   -.391E-12 0.486E-13 0.855E-12
 -----------------------------------------------------------------------------------------------
   0.330E-10 0.107E-09 -.608E-10   0.306E-12 0.572E-14 0.125E-13   -.126E-20 -.492E-21 0.585E-22   0.102E-10 0.322E-11 0.468E-11
 
 
 POSITION                                       TOTAL-FORCE (eV/Angst)
 -----------------------------------------------------------------------------------
      0.00000      0.00000      0.00000         0.000000      0.000000      0.000000
      2.09453      2.09453      4.18906        -0.000000      0.000000      0.000000
      4.18906      4.18906      0.00000        -0.000000      0.000000     -0.000000
      6.28359      6.28359      4.18906         0.000000      0.000000     -0.000000
      2.09453      4.18906      2.09453         0.000000     -0.000000      0.000000
      4.18906      6.28359      6.28359         0.000000     -0.000000     -0.000000
      6.28359      0.00000      2.09453         0.000000      0.000000      0.000000
      0.00000      2.09453      6.28359        -0.000000      0.000000     -0.000000
      4.18906      0.00000      4.18906         0.000000     -0.000000     -0.000000
      6.28359      2.09453      0.00000         0.000000      0.000000     -0.000000
      0.00000      4.18906      4.18906        -0.000000     -0.000000     -0.000000
      2.09453      6.28359      0.00000         0.000000     -0.000000     -0.000000
      6.28359      4.18906      6.28359        -0.000000     -0.000000      0.000000
      0.00000      6.28359      2.09453         0.000000      0.000000      0.000000
      2.09453      0.00000      6.28359         0.000000      0.000000     -0.000000
      4.18906      2.09453      2.09453        -0.000000      0.000000     -0.000000
      4.18906      4.18906      4.18906        -0.000000      0.000000     -0.000000
      6.28359      6.28359      0.00000        -0.000000     -0.000000     -0.000000
      0.00000      0.00000      4.18906        -0.000000     -0.000000      0.000000
      2.09453      2.09453      0.00000        -0.000000      0.000000      0.000000
      6.28359      0.00000      6.28359        -0.000000     -0.000000     -0.000000
      0.00000      2.09453      2.09453         0.000000      0.000000      0.000000
      2.09453      4.18906      6.28359         0.000000     -0.000000     -0.000000
      4.18906      6.28359      2.09453        -0.000000      0.000000     -0.000000
      0.00000      4.18906      0.00000         0.000000     -0.000000     -0.000000
      2.09453      6.28359      4.18906        -0.000000     -0.000000     -0.000000
      4.18906      0.00000      0.00000        -0.000000     -0.000000     -0.000000
      6.28359      2.09453      4.18906        -0.000000     -0.000000     -0.000000
      2.09453      0.00000      2.09453        -0.000000     -0.000000      0.000000
      4.18906      2.09453      6.28359        -0.000000      0.000000      0.000000
      6.28359      4.18906      2.09453        -0.000000      0.000000     -0.000000
      0.00000      6.28359      6.28359        -0.000000      0.000000      0.000000
      2.09453      2.09453      2.09453         0.000000     -0.000000     -0.000000
      4.18906      4.18906      6.28359        -0.000000     -0.000000     -0.000000
      6.28359      6.28359      2.09453         0.000000      0.000000      0.000000
      0.00000      0.00000      6.28359         0.000000     -0.000000     -0.000000
      4.18906      6.28359      4.18906         0.000000     -0.000000      0.000000
      6.28359      0.00000      0.00000        -0.000000      0.000000      0.000000
      0.00000      2.09453      4.18906        -0.000000     -0.000000     -0.000000
      2.09453      4.18906      0.00000        -0.000000     -0.000000      0.000000
      6.28359      2.09453      6.28359         0.000000     -0.000000     -0.000000
      0.00000      4.18906      2.09453         0.000000     -0.000000     -0.000000
      2.09453      6.28359      6.28359         0.000000     -0.000000      0.000000
      4.18906      0.00000      2.09453         0.000000      0.000000      0.000000
      0.00000      6.28359      0.00000         0.000000     -0.000000      0.000000
      2.09453      0.00000      4.18906         0.000000      0.000000      0.000000
      4.18906      2.09453      0.00000         0.000000     -0.000000     -0.000000
      6.28359      4.18906      4.18906        -0.000000      0.000000      0.000000
      6.28359      6.28359      6.28359         0.000000      0.000000      0.000000
      0.00000      0.00000      2.09453        -0.000000     -0.000000      0.000000
      2.09453      2.09453      6.28359        -0.000000      0.000000     -0.000000
      4.18906      4.18906      2.09453         0.000000      0.000000      0.000000
      0.00000      2.09453      0.00000         0.000000     -0.000000     -0.000000
      2.09453      4.18906      4.18906         0.000000     -0.000000      0.000000
      4.18906      6.28359      0.00000         0.000000      0.000000     -0.000000
      6.28359      0.00000      4.18906         0.000000     -0.000000      0.000000
      2.09453      6.28359      2.09453         0.000000     -0.000000      0.000000
      4.18906      0.00000      6.28359         0.000000     -0.000000      0.000000
      6.28359      2.09453      2.09453         0.000000     -0.000000     -0.000000
      0.00000      4.18906      6.28359         0.000000     -0.000000     -0.000000
      4.18906      2.09453      4.18906        -0.000000      0.000000      0.000000
      6.28359      4.18906      0.00000         0.000000      0.000000      0.000000
      0.00000      6.28359      4.18906         0.000000      0.000000      0.000000
      2.09453      0.00000      0.00000         0.000000     -0.000000      0.000000
 -----------------------------------------------------------------------------------
    total drift:                                0.000000      0.000000     -0.000000


--------------------------------------------------------------------------------------------------------



  FREE ENERGIE OF THE ION-ELECTRON SYSTEM (eV)
  ---------------------------------------------------
  free  energy   TOTEN  =      -401.38722781 eV

  energy  without entropy=     -401.38722781  energy(sigma->0) =     -401.38722781
 


--------------------------------------------------------------------------------------------------------


    POTLOK:  cpu time    1.3552: real time    1.3547


--------------------------------------------------------------------------------------------------------


 writing wavefunctions
     LOOP+:  cpu time  457.6359: real time  458.0025
    4ORBIT:  cpu time    0.0000: real time    0.0000
 


 total charge     
 
# of ion       s       p       d       f       tot
--------------------------------------------------
    1        2.149   6.212   7.812   0.009  16.182
    2        2.149   6.212   7.812   0.009  16.182
    3        2.149   6.212   7.812   0.009  16.182
    4        2.149   6.212   7.812   0.009  16.182
    5        2.149   6.212   7.812   0.009  16.182
    6        2.149   6.212   7.812   0.009  16.182
    7        2.149   6.212   7.812   0.009  16.182
    8        2.149   6.212   7.812   0.009  16.182
    9        2.149   6.212   7.812   0.009  16.182
   10        2.149   6.212   7.812   0.009  16.182
   11        2.149   6.212   7.812   0.009  16.182
   12        2.149   6.212   7.812   0.009  16.182
   13        2.149   6.212   7.812   0.009  16.182
   14        2.149   6.212   7.812   0.009  16.182
   15        2.149   6.212   7.812   0.009  16.182
   16        2.149   6.212   7.812   0.009  16.182
   17        2.149   6.212   7.812   0.009  16.182
   18        2.149   6.212   7.812   0.009  16.182
   19        2.149   6.212   7.812   0.009  16.182
   20        2.149   6.212   7.812   0.009  16.182
   21        2.149   6.212   7.812   0.009  16.182
   22        2.149   6.212   7.812   0.009  16.182
   23        2.149   6.212   7.812   0.009  16.182
   24        2.149   6.212   7.812   0.009  16.182
   25        2.149   6.212   7.812   0.009  16.182
   26        2.149   6.212   7.812   0.009  16.182
   27        2.149   6.212   7.812   0.009  16.182
   28        2.149   6.212   7.812   0.009  16.182
   29        2.149   6.212   7.812   0.009  16.182
   30        2.149   6.212   7.812   0.009  16.182
   31        2.149   6.212   7.812   0.009  16.182
   32        2.149   6.212   7.812   0.009  16.182
   33        1.627   3.541   0.018   0.000   5.187
   34        1.627   3.541   0.018   0.000   5.187
   35        1.627   3.541   0.018   0.000   5.187
   36        1.627   3.541   0.018   0.000   5.187
   37        1.627   3.541   0.018   0.000   5.187
   38        1.627   3.541   0.018   0.000   5.187
   39        1.627   3.541   0.018   0.000   5.187
   40        1.627   3.541   0.018   0.000   5.187
   41        1.627   3.541   0.018   0.000   5.187
   42        1.627   3.541   0.018   0.000   5.187
   43        1.627   3.541   0.018   0.000   5.187
   44        1.627   3.541   0.018   0.000   5.187
   45        1.627   3.541   0.018   0.000   5.187
   46        1.627   3.541   0.018   0.000   5.187
   47        1.627   3.541   0.018   0.000   5.187
   48        1.627   3.541   0.018   0.000   5.187
   49        1.627   3.541   0.018   0.000   5.187
   50        1.627   3.541   0.018   0.000   5.187
   51        1.627   3.541   0.018   0.000   5.187
   52        1.627   3.541   0.018   0.000   5.187
   53        1.627   3.541   0.018   0.000   5.187
   54        1.627   3.541   0.018   0.000   5.187
   55        1.627   3.541   0.018   0.000   5.187
   56        1.627   3.541   0.018   0.000   5.187
   57        1.627   3.541   0.018   0.000   5.187
   58        1.627   3.541   0.018   0.000   5.187
   59        1.627   3.541   0.018   0.000   5.187
   60        1.627   3.541   0.018   0.000   5.187
   61        1.627   3.541   0.018   0.000   5.187
   62        1.627   3.541   0.018   0.000   5.187
   63        1.627   3.541   0.018   0.000   5.187
   64        1.627   3.541   0.018   0.000   5.187
--------------------------------------------------
tot        120.828 312.111 250.566   0.289 683.793

 


 magnetization (x)
 
# of ion       s       p       d       f       tot
--------------------------------------------------
    1       -0.003  -0.007   1.327   0.000   1.318
    2       -0.003  -0.007   1.327   0.000   1.318
    3       -0.003  -0.007   1.327   0.000   1.318
    4       -0.003  -0.007   1.327   0.000   1.318
    5       -0.003  -0.007   1.327   0.000   1.318
    6       -0.003  -0.007   1.327   0.000   1.318
    7       -0.003  -0.007   1.327   0.000   1.318
    8       -0.003  -0.007   1.327   0.000   1.318
    9       -0.003  -0.007   1.327   0.000   1.318
   10       -0.003  -0.007   1.327   0.000   1.318
   11       -0.003  -0.007   1.327   0.000   1.318
   12       -0.003  -0.007   1.327   0.000   1.318
   13       -0.003  -0.007   1.327   0.000   1.318
   14       -0.003  -0.007   1.327   0.000   1.318
   15       -0.003  -0.007   1.327   0.000   1.318
   16       -0.003  -0.007   1.327   0.000   1.318
   17        0.003   0.007  -1.327  -0.000  -1.318
   18        0.003   0.007  -1.327  -0.000  -1.318
   19        0.003   0.007  -1.327  -0.000  -1.318
   20        0.003   0.007  -1.327  -0.000  -1.318
   21        0.003   0.007  -1.327  -0.000  -1.318
   22        0.003   0.007  -1.327  -0.000  -1.318
   23        0.003   0.007  -1.327  -0.000  -1.318
   24        0.003   0.007  -1.327  -0.000  -1.318
   25        0.003   0.007  -1.327  -0.000  -1.318
   26        0.003   0.007  -1.327  -0.000  -1.318
   27        0.003   0.007  -1.327  -0.000  -1.318
   28        0.003   0.007  -1.327  -0.000  -1.318
   29        0.003   0.007  -1.327  -0.000  -1.318
   30        0.003   0.007  -1.327  -0.000  -1.318
   31        0.003   0.007  -1.327  -0.000  -1.318
   32        0.003   0.007  -1.327  -0.000  -1.318
   33        0.000   0.000   0.000   0.000   0.000
   34        0.000   0.000   0.000   0.000   0.000
   35        0.000   0.000   0.000   0.000   0.000
   36        0.000  -0.000   0.000   0.000   0.000
   37        0.000  -0.000   0.000   0.000   0.000
   38        0.000   0.000   0.000   0.000   0.000
   39        0.000   0.000   0.000   0.000   0.000
   40        0.000   0.000   0.000   0.000   0.000
   41        0.000  -0.000   0.000   0.000   0.000
   42        0.000   0.000   0.000   0.000   0.000
   43        0.000  -0.000   0.000   0.000   0.000
   44        0.000   0.000   0.000   0.000   0.000
   45        0.000   0.000   0.000   0.000   0.000
   46        0.000  -0.000   0.000   0.000  -0.000
   47        0.000   0.000   0.000   0.000   0.000
   48        0.000   0.000   0.000   0.000   0.000
   49        0.000   0.000   0.000   0.000   0.000
   50        0.000   0.000   0.000   0.000   0.000
   51        0.000  -0.000   0.000   0.000   0.000
   52        0.000   0.000   0.000   0.000   0.000
   53        0.000   0.000   0.000   0.000   0.000
   54        0.000   0.000   0.000   0.000   0.000
   55        0.000   0.000   0.000   0.000   0.000
   56        0.000  -0.000   0.000   0.000   0.000
   57        0.000  -0.000   0.000   0.000   0.000
   58        0.000   0.000   0.000   0.000   0.000
   59        0.000  -0.000   0.000   0.000   0.000
   60        0.000   0.000   0.000   0.000   0.000
   61        0.000  -0.000   0.000   0.000   0.000
   62        0.000   0.000   0.000   0.000   0.000
   63        0.000   0.000   0.000   0.000   0.000
   64        0.000  -0.000   0.000   0.000   0.000
--------------------------------------------------
tot          0.000  -0.000  -0.000  -0.000   0.000

 
