 vasp.5.4.4.18Apr17-6-g9f103f2a35 (build Oct 10 2019 09:51:33) complex          
  
 executed on   carbon_intel19_gpu date 2020.09.25  15:29:08
 running on    1 total cores
 distrk:  each k-point on    1 cores,    1 groups
 distr:  one band on NCORES_PER_BAND=   1 cores,    1 groups


--------------------------------------------------------------------------------------------------------


 INCAR:
 POTCAR:    PAW_PBE Ni_sv_GW 05Dec2013            
 POTCAR:    PAW_PBE O_GW 19Mar2012                
 POTCAR:    PAW_PBE Ni_sv_GW 05Dec2013            
   VRHFIN =Ni:                                                                  
   LEXCH  = PE                                                                  
   EATOM  =  4642.8712 eV,  341.2414 Ry                                         
                                                                                
   TITEL  = PAW_PBE Ni_sv_GW 05Dec2013                                          
   LULTRA =        F    use ultrasoft PP ?                                      
   IUNSCR =        1    unscreen: 0-lin 1-nonlin 2-no                           
   RPACOR =    1.400    partial core radius                                     
   POMASS =   58.690; ZVAL   =   18.000    mass and valenz                      
   RCORE  =    1.900    outmost cutoff radius                                   
   RWIGS  =    2.100; RWIGS  =    1.111    wigner-seitz radius (au A)           
   ENMAX  =  389.645; ENMIN  =  292.234 eV                                      
   RCLOC  =    1.301    cutoff for local pot                                    
   LCOR   =        T    correct aug charges                                     
   LPAW   =        T    paw PP                                                  
   EAUG   = 1036.387                                                            
   RMAX   =    1.945    core radius for proj-oper                               
   RAUG   =    1.300    factor for augmentation sphere                          
   RDEP   =    1.972    radius for radial grids                                 
   RDEPT  =    1.600    core radius for aug-charge                              
                                                                                
   Atomic configuration                                                         
    8 entries                                                                   
     n  l   j            E        occ.                                          
     1  0  0.50     -8203.3308   2.0000                                         
     2  0  0.50      -972.7019   2.0000                                         
     2  1  1.50      -835.6236   6.0000                                         
     3  0  0.50      -102.6944   2.0000                                         
     3  1  1.50       -63.2363   6.0000                                         
     3  1  1.50       -68.0291   0.0000                                         
     3  2  2.50        -1.9692  10.0000                                         
     4  3  2.50        -1.3606   0.0000                                         
   Description                                                                  
     l       E           TYP  RCUT    TYP  RCUT                                 
     0   -102.6944069     23  1.400                                             
     0      1.3605826     23  1.700                                             
     0    204.0873900     23  1.400                                             
     1    -63.2363356     23  1.650                                             
     1    -68.0291300     23  1.650                                             
     1    136.0582600     23  1.650                                             
     2     -1.9691936     23  1.900                                             
     2     27.2116520     23  1.900                                             
     2    136.0582600     23  1.900                                             
     3     27.2116520     23  1.900                                             
     3    136.0582600     23  1.900                                             
  local pseudopotential read in
  partial core-charges read in
  partial kinetic energy density read in
  kinetic energy density of atom read in
  atomic valenz-charges read in
  non local Contribution for L=           0  read in
    real space projection operators read in
  non local Contribution for L=           0  read in
    real space projection operators read in
  non local Contribution for L=           0  read in
    real space projection operators read in
  non local Contribution for L=           1  read in
    real space projection operators read in
  non local Contribution for L=           1  read in
    real space projection operators read in
  non local Contribution for L=           1  read in
    real space projection operators read in
  non local Contribution for L=           2  read in
    real space projection operators read in
  non local Contribution for L=           2  read in
    real space projection operators read in
  non local Contribution for L=           2  read in
    real space projection operators read in
  non local Contribution for L=           3  read in
    real space projection operators read in
  non local Contribution for L=           3  read in
    real space projection operators read in
    PAW grid and wavefunctions read in
 
   number of l-projection  operators is LMAX  =          11
   number of lm-projection operators is LMMAX =          41
 
 POTCAR:    PAW_PBE O_GW 19Mar2012                
   VRHFIN =O: s2p4                                                              
   LEXCH  = PE                                                                  
   EATOM  =   432.3788 eV,   31.7789 Ry                                         
                                                                                
   TITEL  = PAW_PBE O_GW 19Mar2012                                              
   LULTRA =        F    use ultrasoft PP ?                                      
   IUNSCR =        1    unscreen: 0-lin 1-nonlin 2-no                           
   RPACOR =    0.800    partial core radius                                     
   POMASS =   16.000; ZVAL   =    6.000    mass and valenz                      
   RCORE  =    1.600    outmost cutoff radius                                   
   RWIGS  =    1.600; RWIGS  =    0.847    wigner-seitz radius (au A)           
   ENMAX  =  434.431; ENMIN  =  325.824 eV                                      
   ICORE  =        3    local potential                                         
   LCOR   =        T    correct aug charges                                     
   LPAW   =        T    paw PP                                                  
   EAUG   = 1139.609                                                            
   DEXC   =    0.000                                                            
   RMAX   =    1.629    core radius for proj-oper                               
   RAUG   =    1.300    factor for augmentation sphere                          
   RDEP   =    1.652    radius for radial grids                                 
   RDEPT  =    1.200    core radius for aug-charge                              
                                                                                
   Atomic configuration                                                         
    5 entries                                                                   
     n  l   j            E        occ.                                          
     1  0  0.50      -514.6923   2.0000                                         
     2  0  0.50       -23.9615   2.0000                                         
     2  1  0.50        -9.0305   4.0000                                         
     3  2  1.50        -9.5241   0.0000                                         
     4  3  2.50        -9.5241   0.0000                                         
   Description                                                                  
     l       E           TYP  RCUT    TYP  RCUT                                 
     0    -23.9615316     23  1.150                                             
     0    -25.3221142     23  1.150                                             
     0    244.9048680     23  1.300                                             
     1     -9.0304908     23  1.500                                             
     1     -6.9258396     23  1.500                                             
     1    122.4524340     23  1.500                                             
     2     13.6058260     23  1.500                                             
     2    190.4815640     23  1.600                                             
     3     54.4233040     23  1.400                                             
  local pseudopotential read in
  partial core-charges read in
  partial kinetic energy density read in
  kinetic energy density of atom read in
  atomic valenz-charges read in
  non local Contribution for L=           0  read in
    real space projection operators read in
  non local Contribution for L=           0  read in
    real space projection operators read in
  non local Contribution for L=           0  read in
    real space projection operators read in
  non local Contribution for L=           1  read in
    real space projection operators read in
  non local Contribution for L=           1  read in
    real space projection operators read in
  non local Contribution for L=           1  read in
    real space projection operators read in
  non local Contribution for L=           2  read in
    real space projection operators read in
  non local Contribution for L=           2  read in
    real space projection operators read in
    PAW grid and wavefunctions read in
 
   number of l-projection  operators is LMAX  =           8
   number of lm-projection operators is LMMAX =          22
 
 Optimization of the real space projectors (new method)

 maximal supplied QI-value         = 19.84
 optimisation between [QCUT,QGAM] = [ 12.50, 25.00] = [ 43.76,175.03] Ry 
 Optimized for a Real-space Cutoff    1.31 Angstroem

   l    n(q)    QCUT    max X(q) W(low)/X(q) W(high)/X(q)  e(spline) 
   0     10    12.501     2.300    0.65E-05    0.25E-06    0.79E-07
   0     10    12.501     7.576    0.25E-04    0.52E-05    0.18E-06
   0     10    12.501     1.388    0.34E-04    0.75E-05    0.48E-06
   1      9    12.501    11.002    0.11E-03    0.24E-03    0.54E-06
   1      9    12.501    14.537    0.90E-04    0.23E-03    0.70E-06
   1      9    12.501     3.893    0.34E-04    0.51E-04    0.68E-06
   2      9    12.501    14.869    0.32E-03    0.35E-03    0.49E-06
   2      9    12.501     7.291    0.12E-03    0.20E-03    0.30E-06
   2      9    12.501     6.907    0.35E-03    0.37E-03    0.52E-06
   3      8    12.501    10.598    0.33E-03    0.15E-03    0.57E-06
   3      8    12.501     2.997    0.28E-03    0.16E-03    0.51E-06
 Optimization of the real space projectors (new method)

 maximal supplied QI-value         = 23.62
 optimisation between [QCUT,QGAM] = [ 12.52, 25.04] = [ 43.89,175.56] Ry 
 Optimized for a Real-space Cutoff    1.35 Angstroem

   l    n(q)    QCUT    max X(q) W(low)/X(q) W(high)/X(q)  e(spline) 
   0     10    12.519   116.464    0.13E-03    0.15E-03    0.46E-05
   0     10    12.519   116.329    0.13E-03    0.15E-03    0.44E-05
   0     10    12.519     0.942    0.35E-04    0.90E-04    0.23E-05
   1     10    12.519   133.003    0.28E-03    0.77E-04    0.26E-05
   1     10    12.519   116.443    0.28E-03    0.76E-04    0.26E-05
   1     10    12.519     2.481    0.45E-03    0.95E-04    0.45E-05
   2      9    12.519     2.237    0.21E-04    0.33E-04    0.21E-06
   2      9    12.519     2.497    0.16E-03    0.12E-03    0.32E-06
  PAW_PBE Ni_sv_GW 05Dec2013            :
 energy of atom  1       EATOM=-4642.8712
 kinetic energy error for atom=    0.0555 (will be added to EATOM!!)
  PAW_PBE O_GW 19Mar2012                :
 energy of atom  2       EATOM= -432.3788
 kinetic energy error for atom=    0.0188 (will be added to EATOM!!)
 
 
 POSCAR: NiO                                     
  positions in direct lattice
  No initial velocities read in
 exchange correlation table for  LEXCH =        8
   RHO(1)=    0.500       N(1)  =     2000
   RHO(2)=  100.500       N(2)  =     4000
 


--------------------------------------------------------------------------------------------------------


 ion  position               nearest neighbor table
   1  0.000  0.000  0.000-  33 2.09  37 2.09  49 2.09  50 2.09  57 2.09  59 2.09
   2  0.000  0.000  0.500-  34 2.09  38 2.09  49 2.09  50 2.09  58 2.09  60 2.09
   3  0.000  0.500  0.000-  35 2.09  39 2.09  51 2.09  52 2.09  57 2.09  59 2.09
   4  0.000  0.500  0.500-  36 2.09  40 2.09  51 2.09  52 2.09  58 2.09  60 2.09
   5  0.500  0.000  0.000-  33 2.09  37 2.09  53 2.09  54 2.09  61 2.09  63 2.09
   6  0.500  0.000  0.500-  34 2.09  38 2.09  53 2.09  54 2.09  62 2.09  64 2.09
   7  0.500  0.500  0.000-  35 2.09  39 2.09  55 2.09  56 2.09  61 2.09  63 2.09
   8  0.500  0.500  0.500-  36 2.09  40 2.09  55 2.09  56 2.09  62 2.09  64 2.09
   9  0.000  0.250  0.250-  41 2.09  45 2.09  49 2.09  51 2.09  57 2.09  58 2.09
  10  0.000  0.250  0.750-  42 2.09  46 2.09  50 2.09  52 2.09  57 2.09  58 2.09
  11  0.000  0.750  0.250-  43 2.09  47 2.09  49 2.09  51 2.09  59 2.09  60 2.09
  12  0.000  0.750  0.750-  44 2.09  48 2.09  50 2.09  52 2.09  59 2.09  60 2.09
  13  0.500  0.250  0.250-  41 2.09  45 2.09  53 2.09  55 2.09  61 2.09  62 2.09
  14  0.500  0.250  0.750-  42 2.09  46 2.09  54 2.09  56 2.09  61 2.09  62 2.09
  15  0.500  0.750  0.250-  43 2.09  47 2.09  53 2.09  55 2.09  63 2.09  64 2.09
  16  0.500  0.750  0.750-  44 2.09  48 2.09  54 2.09  56 2.09  63 2.09  64 2.09
  17  0.250  0.000  0.250-  33 2.09  34 2.09  41 2.09  43 2.09  49 2.09  53 2.09
  18  0.250  0.000  0.750-  33 2.09  34 2.09  42 2.09  44 2.09  50 2.09  54 2.09
  19  0.250  0.500  0.250-  35 2.09  36 2.09  41 2.09  43 2.09  51 2.09  55 2.09
  20  0.250  0.500  0.750-  35 2.09  36 2.09  42 2.09  44 2.09  52 2.09  56 2.09
  21  0.750  0.000  0.250-  37 2.09  38 2.09  45 2.09  47 2.09  49 2.09  53 2.09
  22  0.750  0.000  0.750-  37 2.09  38 2.09  46 2.09  48 2.09  50 2.09  54 2.09
  23  0.750  0.500  0.250-  39 2.09  40 2.09  45 2.09  47 2.09  51 2.09  55 2.09
  24  0.750  0.500  0.750-  39 2.09  40 2.09  46 2.09  48 2.09  52 2.09  56 2.09
  25  0.250  0.250  0.000-  33 2.09  35 2.09  41 2.09  42 2.09  57 2.09  61 2.09
  26  0.250  0.250  0.500-  34 2.09  36 2.09  41 2.09  42 2.09  58 2.09  62 2.09
  27  0.250  0.750  0.000-  33 2.09  35 2.09  43 2.09  44 2.09  59 2.09  63 2.09
  28  0.250  0.750  0.500-  34 2.09  36 2.09  43 2.09  44 2.09  60 2.09  64 2.09
  29  0.750  0.250  0.000-  37 2.09  39 2.09  45 2.09  46 2.09  57 2.09  61 2.09
  30  0.750  0.250  0.500-  38 2.09  40 2.09  45 2.09  46 2.09  58 2.09  62 2.09
  31  0.750  0.750  0.000-  37 2.09  39 2.09  47 2.09  48 2.09  59 2.09  63 2.09
  32  0.750  0.750  0.500-  38 2.09  40 2.09  47 2.09  48 2.09  60 2.09  64 2.09
  33  0.250  0.000  0.000-   1 2.09   5 2.09  17 2.09  18 2.09  25 2.09  27 2.09
  34  0.250  0.000  0.500-   2 2.09   6 2.09  17 2.09  18 2.09  26 2.09  28 2.09
  35  0.250  0.500  0.000-   3 2.09   7 2.09  19 2.09  20 2.09  25 2.09  27 2.09
  36  0.250  0.500  0.500-   4 2.09   8 2.09  19 2.09  20 2.09  26 2.09  28 2.09
  37  0.750  0.000  0.000-   1 2.09   5 2.09  21 2.09  22 2.09  29 2.09  31 2.09
  38  0.750  0.000  0.500-   2 2.09   6 2.09  21 2.09  22 2.09  30 2.09  32 2.09
  39  0.750  0.500  0.000-   3 2.09   7 2.09  23 2.09  24 2.09  29 2.09  31 2.09
  40  0.750  0.500  0.500-   4 2.09   8 2.09  23 2.09  24 2.09  30 2.09  32 2.09
  41  0.250  0.250  0.250-   9 2.09  13 2.09  17 2.09  19 2.09  25 2.09  26 2.09
  42  0.250  0.250  0.750-  10 2.09  14 2.09  18 2.09  20 2.09  25 2.09  26 2.09
  43  0.250  0.750  0.250-  11 2.09  15 2.09  17 2.09  19 2.09  27 2.09  28 2.09
  44  0.250  0.750  0.750-  12 2.09  16 2.09  18 2.09  20 2.09  27 2.09  28 2.09
  45  0.750  0.250  0.250-   9 2.09  13 2.09  21 2.09  23 2.09  29 2.09  30 2.09
  46  0.750  0.250  0.750-  10 2.09  14 2.09  22 2.09  24 2.09  29 2.09  30 2.09
  47  0.750  0.750  0.250-  11 2.09  15 2.09  21 2.09  23 2.09  31 2.09  32 2.09
  48  0.750  0.750  0.750-  12 2.09  16 2.09  22 2.09  24 2.09  31 2.09  32 2.09
  49  0.000  0.000  0.250-   1 2.09   2 2.09   9 2.09  11 2.09  17 2.09  21 2.09
  50  0.000  0.000  0.750-   1 2.09   2 2.09  10 2.09  12 2.09  18 2.09  22 2.09
  51  0.000  0.500  0.250-   3 2.09   4 2.09   9 2.09  11 2.09  19 2.09  23 2.09
  52  0.000  0.500  0.750-   3 2.09   4 2.09  10 2.09  12 2.09  20 2.09  24 2.09
  53  0.500  0.000  0.250-   5 2.09   6 2.09  13 2.09  15 2.09  17 2.09  21 2.09
  54  0.500  0.000  0.750-   5 2.09   6 2.09  14 2.09  16 2.09  18 2.09  22 2.09
  55  0.500  0.500  0.250-   7 2.09   8 2.09  13 2.09  15 2.09  19 2.09  23 2.09
  56  0.500  0.500  0.750-   7 2.09   8 2.09  14 2.09  16 2.09  20 2.09  24 2.09
  57  0.000  0.250  0.000-   1 2.09   3 2.09   9 2.09  10 2.09  25 2.09  29 2.09
  58  0.000  0.250  0.500-   2 2.09   4 2.09   9 2.09  10 2.09  26 2.09  30 2.09
  59  0.000  0.750  0.000-   1 2.09   3 2.09  11 2.09  12 2.09  27 2.09  31 2.09
  60  0.000  0.750  0.500-   2 2.09   4 2.09  11 2.09  12 2.09  28 2.09  32 2.09
  61  0.500  0.250  0.000-   5 2.09   7 2.09  13 2.09  14 2.09  25 2.09  29 2.09
  62  0.500  0.250  0.500-   6 2.09   8 2.09  13 2.09  14 2.09  26 2.09  30 2.09
  63  0.500  0.750  0.000-   5 2.09   7 2.09  15 2.09  16 2.09  27 2.09  31 2.09
  64  0.500  0.750  0.500-   6 2.09   8 2.09  15 2.09  16 2.09  28 2.09  32 2.09
 
  LATTYP: Found a simple cubic cell.
 ALAT       =     8.3731650000
  
  Lattice vectors:
  
 A1 = (   8.3731650000,   0.0000000000,   0.0000000000)
 A2 = (   0.0000000000,   8.3731650000,   0.0000000000)
 A3 = (   0.0000000000,   0.0000000000,   8.3731650000)


Analysis of symmetry for initial positions (statically):
=====================================================================
 Subroutine PRICEL returns following result:
 
  LATTYP: Found a face centered cubic cell.
 ALAT       =     4.1865825000
  
  Lattice vectors:
  
 A1 = (   2.0932912500,   2.0932912500,   0.0000000000)
 A2 = (   2.0932912500,   0.0000000000,  -2.0932912500)
 A3 = (   0.0000000000,   2.0932912500,  -2.0932912500)
 
  32 primitive cells build up your supercell.
 

 Routine SETGRP: Setting up the symmetry group for a 
 simple cubic supercell.


 Subroutine GETGRP returns: Found 48 space group operations
 (whereof 48 operations were pure point group operations)
 out of a pool of 48 trial point group operations.


The static configuration has the point symmetry O_h .


Analysis of symmetry for dynamics (positions and initial velocities):
=====================================================================
 Subroutine PRICEL returns following result:
 
  LATTYP: Found a face centered cubic cell.
 ALAT       =     4.1865825000
  
  Lattice vectors:
  
 A1 = (   2.0932912500,   2.0932912500,   0.0000000000)
 A2 = (   2.0932912500,   0.0000000000,  -2.0932912500)
 A3 = (   0.0000000000,   2.0932912500,  -2.0932912500)
 
  32 primitive cells build up your supercell.
 

 Routine SETGRP: Setting up the symmetry group for a 
 simple cubic supercell.


 Subroutine GETGRP returns: Found 48 space group operations
 (whereof 48 operations were pure point group operations)
 out of a pool of 48 trial point group operations.


The dynamic configuration has the point symmetry O_h .


Analysis of structural, dynamic, and magnetic symmetry:
=====================================================================
 Subroutine PRICEL returns following result:
 
  LATTYP: Found a face centered cubic cell.
 ALAT       =     4.1865825000
  
  Lattice vectors:
  
 A1 = (   2.0932912500,   2.0932912500,   0.0000000000)
 A2 = (   2.0932912500,   0.0000000000,  -2.0932912500)
 A3 = (   0.0000000000,   2.0932912500,  -2.0932912500)
 
  32 primitive cells build up your supercell.
 

 Routine SETGRP: Setting up the symmetry group for a 
 simple cubic supercell.


 Subroutine GETGRP returns: Found 48 space group operations
 (whereof 48 operations were pure point group operations)
 out of a pool of 48 trial point group operations.


The magnetic configuration has the point symmetry O_h .


 Subroutine INISYM returns: Found 48 space group operations
 (whereof 48 operations are pure point group operations),
 and found    32 'primitive' translations

 
 
 KPOINTS: k-points                                

Automatic generation of k-mesh.
Space group operators:
 irot       det(A)        alpha          n_x          n_y          n_z        tau_x        tau_y        tau_z
    1     1.000000     0.000000     1.000000     0.000000     0.000000     0.000000     0.000000     0.000000
    2    -1.000000     0.000000     1.000000     0.000000     0.000000     0.000000     0.000000     0.000000
    3     1.000000   120.000000    -0.577350    -0.577350    -0.577350     0.000000     0.000000     0.000000
    4    -1.000000   120.000000    -0.577350    -0.577350    -0.577350     0.000000     0.000000     0.000000
    5     1.000000   120.000000     0.577350     0.577350     0.577350     0.000000     0.000000     0.000000
    6    -1.000000   120.000000     0.577350     0.577350     0.577350     0.000000     0.000000     0.000000
    7     1.000000    90.000000     0.000000     0.000000    -1.000000     0.000000     0.000000     0.000000
    8    -1.000000    90.000000     0.000000     0.000000    -1.000000     0.000000     0.000000     0.000000
    9     1.000000   180.000000     0.000000     0.707107     0.707107     0.000000     0.000000     0.000000
   10    -1.000000   180.000000     0.000000     0.707107     0.707107     0.000000     0.000000     0.000000
   11     1.000000    90.000000     0.000000     1.000000     0.000000     0.000000     0.000000     0.000000
   12    -1.000000    90.000000     0.000000     1.000000     0.000000     0.000000     0.000000     0.000000
   13     1.000000   180.000000     0.000000     0.000000     1.000000     0.000000     0.000000     0.000000
   14    -1.000000   180.000000     0.000000     0.000000     1.000000     0.000000     0.000000     0.000000
   15     1.000000   120.000000    -0.577350     0.577350     0.577350     0.000000     0.000000     0.000000
   16    -1.000000   120.000000    -0.577350     0.577350     0.577350     0.000000     0.000000     0.000000
   17     1.000000   120.000000    -0.577350     0.577350    -0.577350     0.000000     0.000000     0.000000
   18    -1.000000   120.000000    -0.577350     0.577350    -0.577350     0.000000     0.000000     0.000000
   19     1.000000    90.000000     0.000000     0.000000     1.000000     0.000000     0.000000     0.000000
   20    -1.000000    90.000000     0.000000     0.000000     1.000000     0.000000     0.000000     0.000000
   21     1.000000    90.000000    -1.000000     0.000000     0.000000     0.000000     0.000000     0.000000
   22    -1.000000    90.000000    -1.000000     0.000000     0.000000     0.000000     0.000000     0.000000
   23     1.000000   180.000000     0.707107     0.000000     0.707107     0.000000     0.000000     0.000000
   24    -1.000000   180.000000     0.707107     0.000000     0.707107     0.000000     0.000000     0.000000
   25     1.000000   120.000000     0.577350    -0.577350     0.577350     0.000000     0.000000     0.000000
   26    -1.000000   120.000000     0.577350    -0.577350     0.577350     0.000000     0.000000     0.000000
   27     1.000000   120.000000    -0.577350    -0.577350     0.577350     0.000000     0.000000     0.000000
   28    -1.000000   120.000000    -0.577350    -0.577350     0.577350     0.000000     0.000000     0.000000
   29     1.000000   180.000000     1.000000     0.000000     0.000000     0.000000     0.000000     0.000000
   30    -1.000000   180.000000     1.000000     0.000000     0.000000     0.000000     0.000000     0.000000
   31     1.000000    90.000000     0.000000    -1.000000     0.000000     0.000000     0.000000     0.000000
   32    -1.000000    90.000000     0.000000    -1.000000     0.000000     0.000000     0.000000     0.000000
   33     1.000000   180.000000     0.707107     0.707107     0.000000     0.000000     0.000000     0.000000
   34    -1.000000   180.000000     0.707107     0.707107     0.000000     0.000000     0.000000     0.000000
   35     1.000000    90.000000     1.000000     0.000000     0.000000     0.000000     0.000000     0.000000
   36    -1.000000    90.000000     1.000000     0.000000     0.000000     0.000000     0.000000     0.000000
   37     1.000000   120.000000     0.577350    -0.577350    -0.577350     0.000000     0.000000     0.000000
   38    -1.000000   120.000000     0.577350    -0.577350    -0.577350     0.000000     0.000000     0.000000
   39     1.000000   180.000000     0.000000     1.000000     0.000000     0.000000     0.000000     0.000000
   40    -1.000000   180.000000     0.000000     1.000000     0.000000     0.000000     0.000000     0.000000
   41     1.000000   120.000000     0.577350     0.577350    -0.577350     0.000000     0.000000     0.000000
   42    -1.000000   120.000000     0.577350     0.577350    -0.577350     0.000000     0.000000     0.000000
   43     1.000000   180.000000     0.000000    -0.707107     0.707107     0.000000     0.000000     0.000000
   44    -1.000000   180.000000     0.000000    -0.707107     0.707107     0.000000     0.000000     0.000000
   45     1.000000   180.000000     0.707107    -0.707107     0.000000     0.000000     0.000000     0.000000
   46    -1.000000   180.000000     0.707107    -0.707107     0.000000     0.000000     0.000000     0.000000
   47     1.000000   180.000000     0.707107     0.000000    -0.707107     0.000000     0.000000     0.000000
   48    -1.000000   180.000000     0.707107     0.000000    -0.707107     0.000000     0.000000     0.000000
 
 Subroutine IBZKPT returns following result:
 ===========================================
 
 Found      4 irreducible k-points:
 
 Following reciprocal coordinates:
            Coordinates               Weight
  0.000000  0.000000  0.000000      1.000000
  0.333333  0.000000  0.000000      6.000000
  0.333333  0.333333  0.000000     12.000000
  0.333333  0.333333  0.333333      8.000000
 
 Following cartesian coordinates:
            Coordinates               Weight
  0.000000  0.000000  0.000000      1.000000
  0.333333  0.000000  0.000000      6.000000
  0.333333  0.333333  0.000000     12.000000
  0.333333  0.333333  0.333333      8.000000
 


--------------------------------------------------------------------------------------------------------




 Dimension of arrays:
   k-points           NKPTS =      4   k-points in BZ     NKDIM =      4   number of bands    NBANDS=    492
   number of dos      NEDOS =    301   number of ions     NIONS =     64
   non local maximal  LDIM  =     11   non local SUM 2l+1 LMDIM =     41
   total plane-waves  NPLWV = 125000
   max r-space proj   IRMAX =   2224   max aug-charges    IRDMAX=   4900
   dimension x,y,z NGX =    50 NGY =   50 NGZ =   50
   dimension x,y,z NGXF=   100 NGYF=  100 NGZF=  100
   support grid    NGXF=   100 NGYF=  100 NGZF=  100
   ions per type =              32  32
   NGX,Y,Z   is equivalent  to a cutoff of   9.93,  9.93,  9.93 a.u.
   NGXF,Y,Z  is equivalent  to a cutoff of  19.85, 19.85, 19.85 a.u.

 SYSTEM =  NiO                                     
 POSCAR =  NiO                                     

 Startparameter for this run:
   NWRITE =      2    write-flag & timer
   PREC   = normal    normal or accurate (medium, high low for compatibility)
   ISTART =      1    job   : 0-new  1-cont  2-samecut
   ICHARG =      2    charge: 1-file 2-atom 10-const
   ISPIN  =      2    spin polarized calculation?
   LNONCOLLINEAR =      F non collinear calculations
   LSORBIT =      F    spin-orbit coupling
   INIWAV =      1    electr: 0-lowe 1-rand  2-diag
   LASPH  =      F    aspherical Exc in radial PAW
   METAGGA=      F    non-selfconsistent MetaGGA calc.

 Electronic Relaxation 1
   ENCUT  =  600.0 eV  44.10 Ry    6.64 a.u.  16.72 16.72 16.72*2*pi/ulx,y,z
   ENINI  =  600.0     initial cutoff
   ENAUG  = 1200.0 eV  augmentation charge cutoff
   NELM   =    100;   NELMIN=  2; NELMDL=  0     # of ELM steps 
   EDIFF  = 0.1E-05   stopping-criterion for ELM
   LREAL  =      T    real-space projection
   NLSPLINE    = F    spline interpolate recip. space projectors
   LCOMPAT=      F    compatible to vasp.4.4
   GGA_COMPAT  = T    GGA compatible to vasp.4.4-vasp.4.6
   LMAXPAW     = -100 max onsite density
   LMAXMIX     =    4 max onsite mixed and CHGCAR
   VOSKOWN=      0    Vosko Wilk Nusair interpolation
   ROPT   =   -0.00050  -0.00050
 Ionic relaxation
   EDIFFG = -.1E-03   stopping-criterion for IOM
   NSW    =      0    number of steps for IOM
   NBLOCK =      1;   KBLOCK =      1    inner block; outer block 
   IBRION =     -1    ionic relax: 0-MD 1-quasi-New 2-CG
   NFREE  =      1    steps in history (QN), initial steepest desc. (CG)
   ISIF   =      2    stress and relaxation
   IWAVPR =     10    prediction:  0-non 1-charg 2-wave 3-comb
   ISYM   =      2    0-nonsym 1-usesym 2-fastsym
   LCORR  =      T    Harris-Foulkes like correction to forces

   POTIM  = 0.2000    time-step for ionic-motion
   TEIN   =    0.0    initial temperature
   TEBEG  =    0.0;   TEEND  =   0.0 temperature during run
   SMASS  =  -3.00    Nose mass-parameter (am)
   estimated Nose-frequenzy (Omega)   =  0.10E-29 period in steps =****** mass=  -0.160E-26a.u.
   SCALEE = 1.0000    scale energy and forces
   NPACO  =    256;   APACO  = 16.0  distance and # of slots for P.C.
   PSTRESS=    0.0 pullay stress

  Mass of Ions in am
   POMASS =  58.69 16.00
  Ionic Valenz
   ZVAL   =  18.00  6.00
  Atomic Wigner-Seitz radii
   RWIGS  =  -1.00 -1.00
  virtual crystal weights 
   VCA    =   1.00  1.00
   NELECT =     768.0000    total number of electrons
   NUPDOWN=      -1.0000    fix difference up-down

 DOS related values:
   EMIN   =  10.00;   EMAX   =-10.00  energy-range for DOS
   EFERMI =   0.00
   ISMEAR =     0;   SIGMA  =   0.00  broadening in eV -4-tet -1-fermi 0-gaus

 Electronic relaxation 2 (details)
   IALGO  =     38    algorithm
   LDIAG  =      T    sub-space diagonalisation (order eigenvalues)
   LSUBROT=      F    optimize rotation matrix (better conditioning)
   TURBO    =      0    0=normal 1=particle mesh
   IRESTART =      0    0=no restart 2=restart with 2 vectors
   NREBOOT  =      0    no. of reboots
   NMIN     =      0    reboot dimension
   EREF     =   0.00    reference energy to select bands
   IMIX   =      4    mixing-type and parameters
     AMIX     =   0.40;   BMIX     =  1.00
     AMIX_MAG =   1.60;   BMIX_MAG =  1.00
     AMIN     =   0.10
     WC   =   100.;   INIMIX=   1;  MIXPRE=   1;  MAXMIX= -45

 Intra band minimization:
   WEIMIN = 0.0000     energy-eigenvalue tresh-hold
   EBREAK =  0.51E-09  absolut break condition
   DEPER  =   0.30     relativ break condition  

   TIME   =   0.40     timestep for ELM

  volume/ion in A,a.u.               =       9.17        61.90
  Fermi-wavevector in a.u.,A,eV,Ry     =   1.790491  3.383538 43.618369  3.205860
  Thomas-Fermi vector in A             =   2.853251
 
 Write flags
   LWAVE        =      T    write WAVECAR
   LDOWNSAMPLE  =      F    k-point downsampling of WAVECAR
   LCHARG       =      T    write CHGCAR
   LVTOT        =      F    write LOCPOT, total local potential
   LVHAR        =      F    write LOCPOT, Hartree potential only
   LELF         =      F    write electronic localiz. function (ELF)
   LORBIT       =     11    0 simple, 1 ext, 2 COOP (PROOUT), +10 PAW based schemes


 Dipole corrections
   LMONO  =      F    monopole corrections only (constant potential shift)
   LDIPOL =      F    correct potential (dipole corrections)
   IDIPOL =      0    1-x, 2-y, 3-z, 4-all directions 
   EPSILON=  1.0000000 bulk dielectric constant

 Exchange correlation treatment:
   GGA     =    --    GGA type
   LEXCH   =     8    internal setting for exchange type
   VOSKOWN=      0    Vosko Wilk Nusair interpolation
   LHFCALC =     F    Hartree Fock is set to
   LHFONE  =     F    Hartree Fock one center treatment
   AEXX    =    0.0000 exact exchange contribution

 Linear response parameters
   LEPSILON=     F    determine dielectric tensor
   LRPA    =     F    only Hartree local field effects (RPA)
   LNABLA  =     F    use nabla operator in PAW spheres
   LVEL    =     F    velocity operator in full k-point grid
   LINTERFAST=   F  fast interpolation
   KINTER  =     0    interpolate to denser k-point grid
   CSHIFT  =0.1000    complex shift for real part using Kramers Kronig
   OMEGAMAX=  -1.0    maximum frequency
   DEG_THRESHOLD= 0.2000000E-02 threshold for treating states as degnerate
   RTIME   =   -0.100 relaxation time in fs
  (WPLASMAI=    0.000 imaginary part of plasma frequency in eV, 0.658/RTIME)
   DFIELD  = 0.0000000 0.0000000 0.0000000 field for delta impulse in time
 
 Orbital magnetization related:
   ORBITALMAG=     F  switch on orbital magnetization
   LCHIMAG   =     F  perturbation theory with respect to B field
   DQ        =  0.001000  dq finite difference perturbation B field
   LLRAUG    =     F  two centre corrections for induced B field



--------------------------------------------------------------------------------------------------------


 Static calculation
 charge density and potential will be updated during run
 spin polarized calculation
 Variant of blocked Davidson
 Davidson routine will perform the subspace rotation
 perform sub-space diagonalisation
    after iterative eigenvector-optimisation
 modified Broyden-mixing scheme, WC =      100.0
 initial mixing is a Kerker type mixing with AMIX =  0.4000 and BMIX =      1.0000
 Hartree-type preconditioning will be used
 using additional bands          108
 real space projection scheme for non local part
 use partial core corrections
 calculate Harris-corrections to forces 
   (improved forces if not selfconsistent)
 use gradient corrections 
 use of overlap-Matrix (Vanderbilt PP)
 Gauss-broadening in eV      SIGMA  =   0.00


--------------------------------------------------------------------------------------------------------


  energy-cutoff  :      600.00
  volume of cell :      587.04
      direct lattice vectors                 reciprocal lattice vectors
     8.373165000  0.000000000  0.000000000     0.119429153  0.000000000  0.000000000
     0.000000000  8.373165000  0.000000000     0.000000000  0.119429153  0.000000000
     0.000000000  0.000000000  8.373165000     0.000000000  0.000000000  0.119429153

  length of vectors
     8.373165000  8.373165000  8.373165000     0.119429153  0.119429153  0.119429153


 
 old parameters found on file WAVECAR:
  energy-cutoff  :      600.00
  volume of cell :      576.56
      direct lattice vectors                 reciprocal lattice vectors
     8.323012000  0.000000000  0.000000000     0.120148812  0.000000000  0.000000000
     0.000000000  8.323012000  0.000000000     0.000000000  0.120148812  0.000000000
     0.000000000  0.000000000  8.323012000     0.000000000  0.000000000  0.120148812

  length of vectors

 
 k-points in units of 2pi/SCALE and weight: k-points                                
   0.00000000  0.00000000  0.00000000       0.037
   0.33333333  0.00000000  0.00000000       0.222
   0.33333333  0.33333333  0.00000000       0.444
   0.33333333  0.33333333  0.33333333       0.296
 
 k-points in reciprocal lattice and weights: k-points                                
   0.00000000  0.00000000  0.00000000       0.037
   0.33333333  0.00000000  0.00000000       0.222
   0.33333333  0.33333333  0.00000000       0.444
   0.33333333  0.33333333  0.33333333       0.296
 
 position of ions in fractional coordinates (direct lattice) 
   0.00000000  0.00000000  0.00000000
   0.00000000  0.00000000  0.50000000
   0.00000000  0.50000000  0.00000000
   0.00000000  0.50000000  0.50000000
   0.50000000  0.00000000  0.00000000
   0.50000000  0.00000000  0.50000000
   0.50000000  0.50000000  0.00000000
   0.50000000  0.50000000  0.50000000
   0.00000000  0.25000000  0.25000000
   0.00000000  0.25000000  0.75000000
   0.00000000  0.75000000  0.25000000
   0.00000000  0.75000000  0.75000000
   0.50000000  0.25000000  0.25000000
   0.50000000  0.25000000  0.75000000
   0.50000000  0.75000000  0.25000000
   0.50000000  0.75000000  0.75000000
   0.25000000  0.00000000  0.25000000
   0.25000000  0.00000000  0.75000000
   0.25000000  0.50000000  0.25000000
   0.25000000  0.50000000  0.75000000
   0.75000000  0.00000000  0.25000000
   0.75000000  0.00000000  0.75000000
   0.75000000  0.50000000  0.25000000
   0.75000000  0.50000000  0.75000000
   0.25000000  0.25000000  0.00000000
   0.25000000  0.25000000  0.50000000
   0.25000000  0.75000000  0.00000000
   0.25000000  0.75000000  0.50000000
   0.75000000  0.25000000  0.00000000
   0.75000000  0.25000000  0.50000000
   0.75000000  0.75000000  0.00000000
   0.75000000  0.75000000  0.50000000
   0.25000000  0.00000000  0.00000000
   0.25000000  0.00000000  0.50000000
   0.25000000  0.50000000  0.00000000
   0.25000000  0.50000000  0.50000000
   0.75000000  0.00000000  0.00000000
   0.75000000  0.00000000  0.50000000
   0.75000000  0.50000000  0.00000000
   0.75000000  0.50000000  0.50000000
   0.25000000  0.25000000  0.25000000
   0.25000000  0.25000000  0.75000000
   0.25000000  0.75000000  0.25000000
   0.25000000  0.75000000  0.75000000
   0.75000000  0.25000000  0.25000000
   0.75000000  0.25000000  0.75000000
   0.75000000  0.75000000  0.25000000
   0.75000000  0.75000000  0.75000000
   0.00000000  0.00000000  0.25000000
   0.00000000  0.00000000  0.75000000
   0.00000000  0.50000000  0.25000000
   0.00000000  0.50000000  0.75000000
   0.50000000  0.00000000  0.25000000
   0.50000000  0.00000000  0.75000000
   0.50000000  0.50000000  0.25000000
   0.50000000  0.50000000  0.75000000
   0.00000000  0.25000000  0.00000000
   0.00000000  0.25000000  0.50000000
   0.00000000  0.75000000  0.00000000
   0.00000000  0.75000000  0.50000000
   0.50000000  0.25000000  0.00000000
   0.50000000  0.25000000  0.50000000
   0.50000000  0.75000000  0.00000000
   0.50000000  0.75000000  0.50000000
 
 position of ions in cartesian coordinates  (Angst):
   0.00000000  0.00000000  0.00000000
   0.00000000  0.00000000  4.18658250
   0.00000000  4.18658250  0.00000000
   0.00000000  4.18658250  4.18658250
   4.18658250  0.00000000  0.00000000
   4.18658250  0.00000000  4.18658250
   4.18658250  4.18658250  0.00000000
   4.18658250  4.18658250  4.18658250
   0.00000000  2.09329125  2.09329125
   0.00000000  2.09329125  6.27987375
   0.00000000  6.27987375  2.09329125
   0.00000000  6.27987375  6.27987375
   4.18658250  2.09329125  2.09329125
   4.18658250  2.09329125  6.27987375
   4.18658250  6.27987375  2.09329125
   4.18658250  6.27987375  6.27987375
   2.09329125  0.00000000  2.09329125
   2.09329125  0.00000000  6.27987375
   2.09329125  4.18658250  2.09329125
   2.09329125  4.18658250  6.27987375
   6.27987375  0.00000000  2.09329125
   6.27987375  0.00000000  6.27987375
   6.27987375  4.18658250  2.09329125
   6.27987375  4.18658250  6.27987375
   2.09329125  2.09329125  0.00000000
   2.09329125  2.09329125  4.18658250
   2.09329125  6.27987375  0.00000000
   2.09329125  6.27987375  4.18658250
   6.27987375  2.09329125  0.00000000
   6.27987375  2.09329125  4.18658250
   6.27987375  6.27987375  0.00000000
   6.27987375  6.27987375  4.18658250
   2.09329125  0.00000000  0.00000000
   2.09329125  0.00000000  4.18658250
   2.09329125  4.18658250  0.00000000
   2.09329125  4.18658250  4.18658250
   6.27987375  0.00000000  0.00000000
   6.27987375  0.00000000  4.18658250
   6.27987375  4.18658250  0.00000000
   6.27987375  4.18658250  4.18658250
   2.09329125  2.09329125  2.09329125
   2.09329125  2.09329125  6.27987375
   2.09329125  6.27987375  2.09329125
   2.09329125  6.27987375  6.27987375
   6.27987375  2.09329125  2.09329125
   6.27987375  2.09329125  6.27987375
   6.27987375  6.27987375  2.09329125
   6.27987375  6.27987375  6.27987375
   0.00000000  0.00000000  2.09329125
   0.00000000  0.00000000  6.27987375
   0.00000000  4.18658250  2.09329125
   0.00000000  4.18658250  6.27987375
   4.18658250  0.00000000  2.09329125
   4.18658250  0.00000000  6.27987375
   4.18658250  4.18658250  2.09329125
   4.18658250  4.18658250  6.27987375
   0.00000000  2.09329125  0.00000000
   0.00000000  2.09329125  4.18658250
   0.00000000  6.27987375  0.00000000
   0.00000000  6.27987375  4.18658250
   4.18658250  2.09329125  0.00000000
   4.18658250  2.09329125  4.18658250
   4.18658250  6.27987375  0.00000000
   4.18658250  6.27987375  4.18658250
 


--------------------------------------------------------------------------------------------------------


 k-point  1 :   0.0000 0.0000 0.0000  plane waves:   19549
 k-point  2 :   0.3333 0.0000 0.0000  plane waves:   19594
 k-point  3 :   0.3333 0.3333 0.0000  plane waves:   19586
 k-point  4 :   0.3333 0.3333 0.3333  plane waves:   19603

 maximum and minimum number of plane-waves per node :     19603    19549

 maximum number of plane-waves:     19603
 maximum index in each direction: 
   IXMAX=   16   IYMAX=   16   IZMAX=   16
   IXMIN=  -17   IYMIN=  -17   IZMIN=  -17


 serial   3D FFT for wavefunctions
 parallel 3D FFT for charge:
    minimum data exchange during FFTs selected (reduces bandwidth)


 total amount of memory used by VASP MPI-rank0  1566004. kBytes
=======================================================================

   base      :      30000. kBytes
   nonlr-proj:      38118. kBytes
   fftplans  :      34720. kBytes
   grid      :      91360. kBytes
   one-center:      10328. kBytes
   wavefun   :    1361478. kBytes
 
     INWAV:  cpu time    1.1681: real time    1.1678
 Broyden mixing: mesh for mixing (old mesh)
   NGX = 33   NGY = 33   NGZ = 33
  (NGX  =100   NGY  =100   NGZ  =100)
  gives a total of  35937 points

 initial charge density was supplied:
 charge density of overlapping atoms calculated
 number of electron     768.0000000 magnetization      64.0000000
 keeping initial charge density in first step


--------------------------------------------------------------------------------------------------------


 Maximum index for non-local projection operator         2176
 Maximum index for augmentation-charges         4553 (set IRDMAX)


--------------------------------------------------------------------------------------------------------


 First call to EWALD:  gamma=   0.212
 Maximum number of real-space cells 3x 3x 3
 Maximum number of reciprocal cells 3x 3x 3

    FEWALD:  cpu time    0.0122: real time    0.0121


----------------------------------------- Iteration    1(   1)  ---------------------------------------


    POTLOK:  cpu time    0.9598: real time    0.9596
    SETDIJ:  cpu time    0.3908: real time    0.3907
     EDDAV:  cpu time   14.4682: real time   14.4726
       DOS:  cpu time    0.0053: real time    0.0053
    CHARGE:  cpu time    3.1807: real time    3.1806
    MIXING:  cpu time    0.0253: real time    0.0253
    --------------------------------------------
      LOOP:  cpu time   19.0326: real time   19.0364

 eigenvalue-minimisations  : 13304
 total energy-change (2. order) :-0.5592904E+03  (-0.2300855E+02)
 number of electron     768.0004886 magnetization      67.4584447
 augmentation part      288.1968929 magnetization      44.6292256

 Broyden mixing:
  rms(total) = 0.15037E+02    rms(broyden)= 0.15033E+02
  rms(prec ) = 0.17785E+02
  weight for this iteration     100.00

 Free energy of the ion-electron system (eV)
  ---------------------------------------------------
  alpha Z        PSCENC =      5405.26752916
  Ewald energy   TEWEN  =   -103786.92559499
  -Hartree energ DENC   =    -49959.65267748
  -exchange      EXHF   =         0.00000000
  -V(xc)+E(xc)   XCENC  =      5193.39291942
  PAW double counting   =    134449.21163418  -140263.96355224
  entropy T*S    EENTRO =        -0.00010461
  eigenvalues    EBANDS =    -14002.24287322
  atomic energy  EATOM  =    162405.62235658
  Solvation  Ediel_sol  =         0.00000000
  ---------------------------------------------------
  free energy    TOTEN  =      -559.29036320 eV

  energy without entropy =     -559.29025859  energy(sigma->0) =     -559.29031090


--------------------------------------------------------------------------------------------------------




----------------------------------------- Iteration    1(   2)  ---------------------------------------


    POTLOK:  cpu time    0.9727: real time    0.9725
    SETDIJ:  cpu time    0.4103: real time    0.4102
     EDDAV:  cpu time   12.3403: real time   12.3411
       DOS:  cpu time    0.0058: real time    0.0058
    CHARGE:  cpu time    3.1251: real time    3.1244
    MIXING:  cpu time    0.0243: real time    0.0243
    --------------------------------------------
      LOOP:  cpu time   16.8792: real time   16.8790

 eigenvalue-minimisations  : 10696
 total energy-change (2. order) : 0.1209086E+03  (-0.7396819E+02)
 number of electron     768.0005407 magnetization      52.1371509
 augmentation part      329.6214484 magnetization      46.2334838

 Broyden mixing:
  rms(total) = 0.11556E+02    rms(broyden)= 0.11556E+02
  rms(prec ) = 0.13447E+02
  weight for this iteration     100.00

 eigenvalues of (default mixing * dielectric matrix)
  average eigenvalue GAMMA=   0.4552
  0.4552

 Free energy of the ion-electron system (eV)
  ---------------------------------------------------
  alpha Z        PSCENC =      5405.26752916
  Ewald energy   TEWEN  =   -103786.92559499
  -Hartree energ DENC   =    -46903.22041186
  -exchange      EXHF   =         0.00000000
  -V(xc)+E(xc)   XCENC  =      5120.13750785
  PAW double counting   =    134539.37289687  -140038.78075265
  entropy T*S    EENTRO =        -0.00011320
  eigenvalues    EBANDS =    -17179.85518103
  atomic energy  EATOM  =    162405.62235658
  Solvation  Ediel_sol  =         0.00000000
  ---------------------------------------------------
  free energy    TOTEN  =      -438.38176327 eV

  energy without entropy =     -438.38165007  energy(sigma->0) =     -438.38170667


--------------------------------------------------------------------------------------------------------




----------------------------------------- Iteration    1(   3)  ---------------------------------------


    POTLOK:  cpu time    0.9633: real time    0.9629
    SETDIJ:  cpu time    0.4063: real time    0.4062
     EDDAV:  cpu time   12.4984: real time   12.5064
       DOS:  cpu time    0.0059: real time    0.0059
    CHARGE:  cpu time    3.1332: real time    3.1326
    MIXING:  cpu time    0.0269: real time    0.0269
    --------------------------------------------
      LOOP:  cpu time   17.0347: real time   17.0415

 eigenvalue-minimisations  : 10880
 total energy-change (2. order) : 0.5824755E+02  (-0.3167924E+02)
 number of electron     768.0004334 magnetization      44.4049457
 augmentation part      306.2510542 magnetization      30.4914873

 Broyden mixing:
  rms(total) = 0.30657E+01    rms(broyden)= 0.30582E+01
  rms(prec ) = 0.35458E+01
  weight for this iteration     100.00

 eigenvalues of (default mixing * dielectric matrix)
  average eigenvalue GAMMA=   0.7300
  0.9651  0.4949

 Free energy of the ion-electron system (eV)
  ---------------------------------------------------
  alpha Z        PSCENC =      5405.26752916
  Ewald energy   TEWEN  =   -103786.92559499
  -Hartree energ DENC   =    -48146.25204923
  -exchange      EXHF   =         0.00000000
  -V(xc)+E(xc)   XCENC  =      5141.59792813
  PAW double counting   =    138428.54117735  -144374.42392285
  entropy T*S    EENTRO =        -0.00005760
  eigenvalues    EBANDS =    -15453.56157757
  atomic energy  EATOM  =    162405.62235658
  Solvation  Ediel_sol  =         0.00000000
  ---------------------------------------------------
  free energy    TOTEN  =      -380.13421101 eV

  energy without entropy =     -380.13415341  energy(sigma->0) =     -380.13418221


--------------------------------------------------------------------------------------------------------




----------------------------------------- Iteration    1(   4)  ---------------------------------------


    POTLOK:  cpu time    0.9578: real time    0.9574
    SETDIJ:  cpu time    0.4055: real time    0.4054
     EDDAV:  cpu time   16.1756: real time   16.1813
       DOS:  cpu time    0.0061: real time    0.0061
    CHARGE:  cpu time    3.1528: real time    3.1522
    MIXING:  cpu time    0.0307: real time    0.0306
    --------------------------------------------
      LOOP:  cpu time   20.7291: real time   20.7335

 eigenvalue-minimisations  : 15424
 total energy-change (2. order) :-0.1127337E+02  (-0.1431215E+02)
 number of electron     768.0004419 magnetization      41.6426548
 augmentation part      309.8350267 magnetization      28.0107354

 Broyden mixing:
  rms(total) = 0.14871E+01    rms(broyden)= 0.14867E+01
  rms(prec ) = 0.15830E+01
  weight for this iteration     100.00

 eigenvalues of (default mixing * dielectric matrix)
  average eigenvalue GAMMA=   0.7185
  0.8388  0.8388  0.4781

 Free energy of the ion-electron system (eV)
  ---------------------------------------------------
  alpha Z        PSCENC =      5405.26752916
  Ewald energy   TEWEN  =   -103786.92559499
  -Hartree energ DENC   =    -47848.70021935
  -exchange      EXHF   =         0.00000000
  -V(xc)+E(xc)   XCENC  =      5134.51826453
  PAW double counting   =    139052.33880606  -145062.75453998
  entropy T*S    EENTRO =        -0.00026495
  eigenvalues    EBANDS =    -15690.77392221
  atomic energy  EATOM  =    162405.62235658
  Solvation  Ediel_sol  =         0.00000000
  ---------------------------------------------------
  free energy    TOTEN  =      -391.40758514 eV

  energy without entropy =     -391.40732019  energy(sigma->0) =     -391.40745266


--------------------------------------------------------------------------------------------------------




----------------------------------------- Iteration    1(   5)  ---------------------------------------


    POTLOK:  cpu time    0.9586: real time    0.9582
    SETDIJ:  cpu time    0.4067: real time    0.4066
     EDDAV:  cpu time   14.0855: real time   14.0854
       DOS:  cpu time    0.0060: real time    0.0060
    CHARGE:  cpu time    3.1297: real time    3.1290
    MIXING:  cpu time    0.0350: real time    0.0350
    --------------------------------------------
      LOOP:  cpu time   18.6221: real time   18.6208

 eigenvalue-minimisations  : 12800
 total energy-change (2. order) :-0.1541687E+01  (-0.1746419E+01)
 number of electron     768.0004421 magnetization      38.7817040
 augmentation part      309.0827525 magnetization      25.4376544

 Broyden mixing:
  rms(total) = 0.85590E+00    rms(broyden)= 0.85587E+00
  rms(prec ) = 0.90526E+00
  weight for this iteration     100.00

 eigenvalues of (default mixing * dielectric matrix)
  average eigenvalue GAMMA=   1.0362
  1.9102  1.1043  0.4962  0.6340

 Free energy of the ion-electron system (eV)
  ---------------------------------------------------
  alpha Z        PSCENC =      5405.26752916
  Ewald energy   TEWEN  =   -103786.92559499
  -Hartree energ DENC   =    -47838.77115333
  -exchange      EXHF   =         0.00000000
  -V(xc)+E(xc)   XCENC  =      5136.33499109
  PAW double counting   =    139734.82119590  -145790.43980961
  entropy T*S    EENTRO =        -0.00025005
  eigenvalues    EBANDS =    -15658.85853701
  atomic energy  EATOM  =    162405.62235658
  Solvation  Ediel_sol  =         0.00000000
  ---------------------------------------------------
  free energy    TOTEN  =      -392.94927227 eV

  energy without entropy =     -392.94902222  energy(sigma->0) =     -392.94914724


--------------------------------------------------------------------------------------------------------




----------------------------------------- Iteration    1(   6)  ---------------------------------------


    POTLOK:  cpu time    0.9609: real time    0.9607
    SETDIJ:  cpu time    0.4087: real time    0.4085
     EDDAV:  cpu time   15.8768: real time   15.8781
       DOS:  cpu time    0.0063: real time    0.0063
    CHARGE:  cpu time    3.1392: real time    3.1386
    MIXING:  cpu time    0.0390: real time    0.0390
    --------------------------------------------
      LOOP:  cpu time   20.4315: real time   20.4318

 eigenvalue-minimisations  : 14928
 total energy-change (2. order) :-0.2214144E+00  (-0.4066422E+00)
 number of electron     768.0004434 magnetization      38.8981271
 augmentation part      309.1427372 magnetization      26.0130721

 Broyden mixing:
  rms(total) = 0.31091E+00    rms(broyden)= 0.31086E+00
  rms(prec ) = 0.34850E+00
  weight for this iteration     100.00

 eigenvalues of (default mixing * dielectric matrix)
  average eigenvalue GAMMA=   1.0933
  2.2274  1.2065  0.4862  0.7732  0.7732

 Free energy of the ion-electron system (eV)
  ---------------------------------------------------
  alpha Z        PSCENC =      5405.26752916
  Ewald energy   TEWEN  =   -103786.92559499
  -Hartree energ DENC   =    -47807.34200953
  -exchange      EXHF   =         0.00000000
  -V(xc)+E(xc)   XCENC  =      5137.18673374
  PAW double counting   =    140757.38050950  -146839.06923333
  entropy T*S    EENTRO =        -0.00036673
  eigenvalues    EBANDS =    -15665.29061107
  atomic energy  EATOM  =    162405.62235658
  Solvation  Ediel_sol  =         0.00000000
  ---------------------------------------------------
  free energy    TOTEN  =      -393.17068667 eV

  energy without entropy =     -393.17031995  energy(sigma->0) =     -393.17050331


--------------------------------------------------------------------------------------------------------




----------------------------------------- Iteration    1(   7)  ---------------------------------------


    POTLOK:  cpu time    0.9644: real time    0.9641
    SETDIJ:  cpu time    0.4072: real time    0.4070
     EDDAV:  cpu time   15.4632: real time   15.4637
       DOS:  cpu time    0.0063: real time    0.0063
    CHARGE:  cpu time    3.1479: real time    3.1472
    MIXING:  cpu time    0.0392: real time    0.0391
    --------------------------------------------
      LOOP:  cpu time   20.0287: real time   20.0281

 eigenvalue-minimisations  : 14432
 total energy-change (2. order) :-0.2286458E-01  (-0.3216938E-01)
 number of electron     768.0004429 magnetization      39.1493489
 augmentation part      309.1190863 magnetization      26.0344462

 Broyden mixing:
  rms(total) = 0.11927E+00    rms(broyden)= 0.11923E+00
  rms(prec ) = 0.12210E+00
  weight for this iteration     100.00

 eigenvalues of (default mixing * dielectric matrix)
  average eigenvalue GAMMA=   1.1158
  2.2266  1.6341  0.8495  0.8495  0.4887  0.6465

 Free energy of the ion-electron system (eV)
  ---------------------------------------------------
  alpha Z        PSCENC =      5405.26752916
  Ewald energy   TEWEN  =   -103786.92559499
  -Hartree energ DENC   =    -47811.53084097
  -exchange      EXHF   =         0.00000000
  -V(xc)+E(xc)   XCENC  =      5136.81984060
  PAW double counting   =    140986.47298817  -147056.04889345
  entropy T*S    EENTRO =        -0.00027679
  eigenvalues    EBANDS =    -15672.87065955
  atomic energy  EATOM  =    162405.62235658
  Solvation  Ediel_sol  =         0.00000000
  ---------------------------------------------------
  free energy    TOTEN  =      -393.19355125 eV

  energy without entropy =     -393.19327446  energy(sigma->0) =     -393.19341286


--------------------------------------------------------------------------------------------------------




----------------------------------------- Iteration    1(   8)  ---------------------------------------


    POTLOK:  cpu time    0.9579: real time    0.9576
    SETDIJ:  cpu time    0.4104: real time    0.4103
     EDDAV:  cpu time   15.3014: real time   15.3034
       DOS:  cpu time    0.0063: real time    0.0063
    CHARGE:  cpu time    3.1243: real time    3.1237
    MIXING:  cpu time    0.0481: real time    0.0480
    --------------------------------------------
      LOOP:  cpu time   19.8491: real time   19.8500

 eigenvalue-minimisations  : 14472
 total energy-change (2. order) :-0.7212479E-02  (-0.4951546E-02)
 number of electron     768.0004428 magnetization      39.1699005
 augmentation part      309.1040642 magnetization      26.0433074

 Broyden mixing:
  rms(total) = 0.64538E-01    rms(broyden)= 0.64535E-01
  rms(prec ) = 0.67554E-01
  weight for this iteration     100.00

 eigenvalues of (default mixing * dielectric matrix)
  average eigenvalue GAMMA=   1.1190
  2.0364  2.0364  0.9844  0.9844  0.4876  0.6521  0.6521

 Free energy of the ion-electron system (eV)
  ---------------------------------------------------
  alpha Z        PSCENC =      5405.26752916
  Ewald energy   TEWEN  =   -103786.92559499
  -Hartree energ DENC   =    -47820.28694976
  -exchange      EXHF   =         0.00000000
  -V(xc)+E(xc)   XCENC  =      5137.12552860
  PAW double counting   =    140995.81105000  -147059.98929955
  entropy T*S    EENTRO =        -0.00025083
  eigenvalues    EBANDS =    -15669.82513295
  atomic energy  EATOM  =    162405.62235658
  Solvation  Ediel_sol  =         0.00000000
  ---------------------------------------------------
  free energy    TOTEN  =      -393.20076373 eV

  energy without entropy =     -393.20051290  energy(sigma->0) =     -393.20063832


--------------------------------------------------------------------------------------------------------




----------------------------------------- Iteration    1(   9)  ---------------------------------------


    POTLOK:  cpu time    0.9616: real time    0.9613
    SETDIJ:  cpu time    0.4076: real time    0.4074
     EDDAV:  cpu time   15.7073: real time   15.7085
       DOS:  cpu time    0.0060: real time    0.0060
    CHARGE:  cpu time    3.1268: real time    3.1261
    MIXING:  cpu time    0.0509: real time    0.0510
    --------------------------------------------
      LOOP:  cpu time   20.2608: real time   20.2607

 eigenvalue-minimisations  : 14776
 total energy-change (2. order) :-0.9933254E-05  (-0.5362432E-03)
 number of electron     768.0004428 magnetization      39.1492282
 augmentation part      309.0945235 magnetization      26.0133516

 Broyden mixing:
  rms(total) = 0.31745E-01    rms(broyden)= 0.31745E-01
  rms(prec ) = 0.32853E-01
  weight for this iteration     100.00

 eigenvalues of (default mixing * dielectric matrix)
  average eigenvalue GAMMA=   1.1694
  2.2070  2.2070  1.1214  1.1214  0.8821  0.4881  0.6988  0.6289

 Free energy of the ion-electron system (eV)
  ---------------------------------------------------
  alpha Z        PSCENC =      5405.26752916
  Ewald energy   TEWEN  =   -103786.92559499
  -Hartree energ DENC   =    -47826.10271802
  -exchange      EXHF   =         0.00000000
  -V(xc)+E(xc)   XCENC  =      5137.41456825
  PAW double counting   =    140989.05323184  -147051.97113061
  entropy T*S    EENTRO =        -0.00025075
  eigenvalues    EBANDS =    -15665.55876512
  atomic energy  EATOM  =    162405.62235658
  Solvation  Ediel_sol  =         0.00000000
  ---------------------------------------------------
  free energy    TOTEN  =      -393.20077366 eV

  energy without entropy =     -393.20052291  energy(sigma->0) =     -393.20064829


--------------------------------------------------------------------------------------------------------




----------------------------------------- Iteration    1(  10)  ---------------------------------------


    POTLOK:  cpu time    0.9623: real time    0.9620
    SETDIJ:  cpu time    0.4098: real time    0.4096
     EDDAV:  cpu time   15.4381: real time   15.4424
       DOS:  cpu time    0.0062: real time    0.0062
    CHARGE:  cpu time    3.1124: real time    3.1117
    MIXING:  cpu time    0.0579: real time    0.0578
    --------------------------------------------
      LOOP:  cpu time   19.9872: real time   19.9903

 eigenvalue-minimisations  : 14672
 total energy-change (2. order) :-0.2766113E-03  (-0.1722583E-03)
 number of electron     768.0004427 magnetization      39.1356974
 augmentation part      309.0704377 magnetization      25.9969802

 Broyden mixing:
  rms(total) = 0.61237E-02    rms(broyden)= 0.61227E-02
  rms(prec ) = 0.70166E-02
  weight for this iteration     100.00

 eigenvalues of (default mixing * dielectric matrix)
  average eigenvalue GAMMA=   1.1399
  2.3419  2.1461  1.0927  1.0927  0.4880  0.8873  0.8873  0.7012  0.6219

 Free energy of the ion-electron system (eV)
  ---------------------------------------------------
  alpha Z        PSCENC =      5405.26752916
  Ewald energy   TEWEN  =   -103786.92559499
  -Hartree energ DENC   =    -47831.40308854
  -exchange      EXHF   =         0.00000000
  -V(xc)+E(xc)   XCENC  =      5137.65844909
  PAW double counting   =    140992.98018805  -147054.58138538
  entropy T*S    EENTRO =        -0.00025075
  eigenvalues    EBANDS =    -15661.81925349
  atomic energy  EATOM  =    162405.62235658
  Solvation  Ediel_sol  =         0.00000000
  ---------------------------------------------------
  free energy    TOTEN  =      -393.20105028 eV

  energy without entropy =     -393.20079952  energy(sigma->0) =     -393.20092490


--------------------------------------------------------------------------------------------------------




----------------------------------------- Iteration    1(  11)  ---------------------------------------


    POTLOK:  cpu time    0.9592: real time    0.9589
    SETDIJ:  cpu time    0.4082: real time    0.4081
     EDDAV:  cpu time   14.6104: real time   14.6097
       DOS:  cpu time    0.0060: real time    0.0060
    CHARGE:  cpu time    3.1256: real time    3.1249
    MIXING:  cpu time    0.0566: real time    0.0566
    --------------------------------------------
      LOOP:  cpu time   19.1666: real time   19.1647

 eigenvalue-minimisations  : 13392
 total energy-change (2. order) :-0.3618031E-04  (-0.2162422E-04)
 number of electron     768.0004427 magnetization      39.1163288
 augmentation part      309.0791004 magnetization      25.9802711

 Broyden mixing:
  rms(total) = 0.25435E-02    rms(broyden)= 0.25435E-02
  rms(prec ) = 0.27554E-02
  weight for this iteration     100.00

 eigenvalues of (default mixing * dielectric matrix)
  average eigenvalue GAMMA=   1.1669
  2.4285  2.1794  1.3576  1.0557  1.0557  1.0703  0.4880  0.7097  0.7097  0.6141

 Free energy of the ion-electron system (eV)
  ---------------------------------------------------
  alpha Z        PSCENC =      5405.26752916
  Ewald energy   TEWEN  =   -103786.92559499
  -Hartree energ DENC   =    -47830.81233128
  -exchange      EXHF   =         0.00000000
  -V(xc)+E(xc)   XCENC  =      5137.62497686
  PAW double counting   =    140993.76726464  -147055.13286039
  entropy T*S    EENTRO =        -0.00025075
  eigenvalues    EBANDS =    -15662.61217628
  atomic energy  EATOM  =    162405.62235658
  Solvation  Ediel_sol  =         0.00000000
  ---------------------------------------------------
  free energy    TOTEN  =      -393.20108646 eV

  energy without entropy =     -393.20083570  energy(sigma->0) =     -393.20096108


--------------------------------------------------------------------------------------------------------




----------------------------------------- Iteration    1(  12)  ---------------------------------------


    POTLOK:  cpu time    0.9521: real time    0.9516
    SETDIJ:  cpu time    0.4081: real time    0.4080
     EDDAV:  cpu time   14.5018: real time   14.4972
       DOS:  cpu time    0.0059: real time    0.0059
    CHARGE:  cpu time    3.1268: real time    3.1262
    MIXING:  cpu time    0.0693: real time    0.0692
    --------------------------------------------
      LOOP:  cpu time   19.0646: real time   19.0587

 eigenvalue-minimisations  : 13416
 total energy-change (2. order) :-0.2670789E-04  (-0.4383987E-05)
 number of electron     768.0004427 magnetization      39.1087600
 augmentation part      309.0795750 magnetization      25.9750610

 Broyden mixing:
  rms(total) = 0.10668E-02    rms(broyden)= 0.10667E-02
  rms(prec ) = 0.11369E-02
  weight for this iteration     100.00

 eigenvalues of (default mixing * dielectric matrix)
  average eigenvalue GAMMA=   1.1961
  2.5773  2.2240  1.8123  1.0910  1.0910  0.9360  0.9360  0.4880  0.6279  0.6867
  0.6867

 Free energy of the ion-electron system (eV)
  ---------------------------------------------------
  alpha Z        PSCENC =      5405.26752916
  Ewald energy   TEWEN  =   -103786.92559499
  -Hartree energ DENC   =    -47830.64869644
  -exchange      EXHF   =         0.00000000
  -V(xc)+E(xc)   XCENC  =      5137.61785619
  PAW double counting   =    140992.93972475  -147054.41382683
  entropy T*S    EENTRO =        -0.00025075
  eigenvalues    EBANDS =    -15662.66021083
  atomic energy  EATOM  =    162405.62235658
  Solvation  Ediel_sol  =         0.00000000
  ---------------------------------------------------
  free energy    TOTEN  =      -393.20111316 eV

  energy without entropy =     -393.20086241  energy(sigma->0) =     -393.20098779


--------------------------------------------------------------------------------------------------------




----------------------------------------- Iteration    1(  13)  ---------------------------------------


    POTLOK:  cpu time    0.9578: real time    0.9575
    SETDIJ:  cpu time    0.4086: real time    0.4085
     EDDAV:  cpu time    9.9314: real time    9.9436
       DOS:  cpu time    0.0062: real time    0.0062
    CHARGE:  cpu time    3.1191: real time    3.1185
    MIXING:  cpu time    0.0676: real time    0.0676
    --------------------------------------------
      LOOP:  cpu time   14.4913: real time   14.5024

 eigenvalue-minimisations  :  7536
 total energy-change (2. order) :-0.5731476E-05  (-0.4150655E-06)
 number of electron     768.0004427 magnetization      39.1093147
 augmentation part      309.0792484 magnetization      25.9759263

 Broyden mixing:
  rms(total) = 0.62007E-03    rms(broyden)= 0.62003E-03
  rms(prec ) = 0.64536E-03
  weight for this iteration     100.00

 eigenvalues of (default mixing * dielectric matrix)
  average eigenvalue GAMMA=   1.2036
  2.4575  2.4575  1.9773  1.1098  1.1098  1.0326  1.0326  0.4880  0.7499  0.7359
  0.6253  0.6671

 Free energy of the ion-electron system (eV)
  ---------------------------------------------------
  alpha Z        PSCENC =      5405.26752916
  Ewald energy   TEWEN  =   -103786.92559499
  -Hartree energ DENC   =    -47830.55393641
  -exchange      EXHF   =         0.00000000
  -V(xc)+E(xc)   XCENC  =      5137.61366034
  PAW double counting   =    140992.30727508  -147053.91736631
  entropy T*S    EENTRO =        -0.00025075
  eigenvalues    EBANDS =    -15662.61479159
  atomic energy  EATOM  =    162405.62235658
  Solvation  Ediel_sol  =         0.00000000
  ---------------------------------------------------
  free energy    TOTEN  =      -393.20111889 eV

  energy without entropy =     -393.20086814  energy(sigma->0) =     -393.20099352


--------------------------------------------------------------------------------------------------------




----------------------------------------- Iteration    1(  14)  ---------------------------------------


    POTLOK:  cpu time    0.9492: real time    0.9488
    SETDIJ:  cpu time    0.4089: real time    0.4088
     EDDAV:  cpu time    8.7347: real time    8.7393
       DOS:  cpu time    0.0062: real time    0.0062
    CHARGE:  cpu time    3.1287: real time    3.1280
    MIXING:  cpu time    0.0730: real time    0.0730
    --------------------------------------------
      LOOP:  cpu time   13.3013: real time   13.3047

 eigenvalue-minimisations  :  5920
 total energy-change (2. order) :-0.1570414E-05  (-0.1034659E-06)
 number of electron     768.0004427 magnetization      39.1104241
 augmentation part      309.0790286 magnetization      25.9768162

 Broyden mixing:
  rms(total) = 0.18401E-03    rms(broyden)= 0.18399E-03
  rms(prec ) = 0.19436E-03
  weight for this iteration     100.00

 eigenvalues of (default mixing * dielectric matrix)
  average eigenvalue GAMMA=   1.1888
  2.5009  2.5009  1.9610  1.3459  1.0888  1.0296  1.0296  0.8757  0.4880  0.7322
  0.6491  0.6491  0.6035

 Free energy of the ion-electron system (eV)
  ---------------------------------------------------
  alpha Z        PSCENC =      5405.26752916
  Ewald energy   TEWEN  =   -103786.92559499
  -Hartree energ DENC   =    -47830.44669376
  -exchange      EXHF   =         0.00000000
  -V(xc)+E(xc)   XCENC  =      5137.60767483
  PAW double counting   =    140991.85050839  -147053.53280407
  entropy T*S    EENTRO =        -0.00025075
  eigenvalues    EBANDS =    -15662.64384585
  atomic energy  EATOM  =    162405.62235658
  Solvation  Ediel_sol  =         0.00000000
  ---------------------------------------------------
  free energy    TOTEN  =      -393.20112047 eV

  energy without entropy =     -393.20086971  energy(sigma->0) =     -393.20099509


--------------------------------------------------------------------------------------------------------




----------------------------------------- Iteration    1(  15)  ---------------------------------------


    POTLOK:  cpu time    0.9477: real time    0.9473
    SETDIJ:  cpu time    0.4137: real time    0.4135
     EDDAV:  cpu time    8.4750: real time    8.4769
       DOS:  cpu time    0.0056: real time    0.0056
    --------------------------------------------
      LOOP:  cpu time    9.8425: real time    9.8439

 eigenvalue-minimisations  :  5712
 total energy-change (2. order) : 0.9327778E-07  (-0.6866578E-07)
 number of electron     768.0004427 magnetization      39.1104241
 augmentation part      309.0790286 magnetization      25.9768162

 Free energy of the ion-electron system (eV)
  ---------------------------------------------------
  alpha Z        PSCENC =      5405.26752916
  Ewald energy   TEWEN  =   -103786.92559499
  -Hartree energ DENC   =    -47830.43656045
  -exchange      EXHF   =         0.00000000
  -V(xc)+E(xc)   XCENC  =      5137.60712053
  PAW double counting   =    140991.82517970  -147053.50262262
  entropy T*S    EENTRO =        -0.00025075
  eigenvalues    EBANDS =    -15662.65827753
  atomic energy  EATOM  =    162405.62235658
  Solvation  Ediel_sol  =         0.00000000
  ---------------------------------------------------
  free energy    TOTEN  =      -393.20112037 eV

  energy without entropy =     -393.20086962  energy(sigma->0) =     -393.20099500


--------------------------------------------------------------------------------------------------------




 average (electrostatic) potential at core
  the test charge radii are     0.8614  0.6768
  (the norm of the test charge is              1.0000)
       1 -79.7713       2 -79.7713       3 -79.7713       4 -79.7713       5 -79.7713
       6 -79.7713       7 -79.7713       8 -79.7713       9 -79.7713      10 -79.7713
      11 -79.7713      12 -79.7713      13 -79.7713      14 -79.7713      15 -79.7713
      16 -79.7713      17 -79.7713      18 -79.7713      19 -79.7713      20 -79.7713
      21 -79.7713      22 -79.7713      23 -79.7713      24 -79.7713      25 -79.7713
      26 -79.7713      27 -79.7713      28 -79.7713      29 -79.7713      30 -79.7713
      31 -79.7713      32 -79.7713      33-114.0840      34-114.0840      35-114.0840
      36-114.0840      37-114.0840      38-114.0840      39-114.0840      40-114.0840
      41-114.0840      42-114.0840      43-114.0840      44-114.0840      45-114.0840
      46-114.0840      47-114.0840      48-114.0840      49-114.0840      50-114.0840
      51-114.0840      52-114.0840      53-114.0840      54-114.0840      55-114.0840
      56-114.0840      57-114.0840      58-114.0840      59-114.0840      60-114.0840
      61-114.0840      62-114.0840      63-114.0840      64-114.0840
 
 
 
 E-fermi :   7.5615     XC(G=0): -13.0121     alpha+bet :-12.5983


 spin component 1

 k-point     1 :       0.0000    0.0000    0.0000
  band No.  band energies     occupation 
      1     -96.3499      1.00000
      2     -96.3477      1.00000
      3     -96.3477      1.00000
      4     -96.3477      1.00000
      5     -96.3477      1.00000
      6     -96.3477      1.00000
      7     -96.3477      1.00000
      8     -96.3477      1.00000
      9     -96.3477      1.00000
     10     -96.3477      1.00000
     11     -96.3477      1.00000
     12     -96.3477      1.00000
     13     -96.3477      1.00000
     14     -96.3475      1.00000
     15     -96.3475      1.00000
     16     -96.3475      1.00000
     17     -96.3475      1.00000
     18     -96.3475      1.00000
     19     -96.3475      1.00000
     20     -96.3474      1.00000
     21     -96.3474      1.00000
     22     -96.3474      1.00000
     23     -96.3474      1.00000
     24     -96.3468      1.00000
     25     -96.3468      1.00000
     26     -96.3468      1.00000
     27     -96.3468      1.00000
     28     -96.3468      1.00000
     29     -96.3468      1.00000
     30     -96.3468      1.00000
     31     -96.3468      1.00000
     32     -96.3468      1.00000
     33     -56.7744      1.00000
     34     -56.7744      1.00000
     35     -56.7744      1.00000
     36     -56.7744      1.00000
     37     -56.7721      1.00000
     38     -56.7721      1.00000
     39     -56.7721      1.00000
     40     -56.7659      1.00000
     41     -56.7659      1.00000
     42     -56.7659      1.00000
     43     -56.7659      1.00000
     44     -56.7659      1.00000
     45     -56.7659      1.00000
     46     -56.7659      1.00000
     47     -56.7659      1.00000
     48     -56.7659      1.00000
     49     -56.7658      1.00000
     50     -56.7658      1.00000
     51     -56.7658      1.00000
     52     -56.7636      1.00000
     53     -56.7636      1.00000
     54     -56.7636      1.00000
     55     -56.7636      1.00000
     56     -56.7636      1.00000
     57     -56.7636      1.00000
     58     -56.7636      1.00000
     59     -56.7636      1.00000
     60     -56.7636      1.00000
     61     -56.7636      1.00000
     62     -56.7636      1.00000
     63     -56.7636      1.00000
     64     -56.7576      1.00000
     65     -56.7576      1.00000
     66     -56.7576      1.00000
     67     -56.7576      1.00000
     68     -56.7576      1.00000
     69     -56.7576      1.00000
     70     -56.7568      1.00000
     71     -56.7568      1.00000
     72     -56.7568      1.00000
     73     -56.7568      1.00000
     74     -56.7568      1.00000
     75     -56.7568      1.00000
     76     -56.7568      1.00000
     77     -56.7568      1.00000
     78     -56.7568      1.00000
     79     -56.7568      1.00000
     80     -56.7568      1.00000
     81     -56.7568      1.00000
     82     -56.7556      1.00000
     83     -56.7556      1.00000
     84     -56.7556      1.00000
     85     -56.7556      1.00000
     86     -56.7556      1.00000
     87     -56.7556      1.00000
     88     -56.7556      1.00000
     89     -56.7556      1.00000
     90     -56.7556      1.00000
     91     -56.7556      1.00000
     92     -56.7556      1.00000
     93     -56.7556      1.00000
     94     -56.7486      1.00000
     95     -56.7486      1.00000
     96     -56.7486      1.00000
     97     -56.7486      1.00000
     98     -56.7486      1.00000
     99     -56.7486      1.00000
    100     -56.7486      1.00000
    101     -56.7486      1.00000
    102     -56.7486      1.00000
    103     -56.7486      1.00000
    104     -56.7486      1.00000
    105     -56.7486      1.00000
    106     -56.7478      1.00000
    107     -56.7478      1.00000
    108     -56.7478      1.00000
    109     -56.7478      1.00000
    110     -56.7478      1.00000
    111     -56.7478      1.00000
    112     -56.7478      1.00000
    113     -56.7478      1.00000
    114     -56.7478      1.00000
    115     -56.7478      1.00000
    116     -56.7478      1.00000
    117     -56.7478      1.00000
    118     -56.7478      1.00000
    119     -56.7478      1.00000
    120     -56.7478      1.00000
    121     -56.7478      1.00000
    122     -56.7478      1.00000
    123     -56.7478      1.00000
    124     -56.7478      1.00000
    125     -56.7478      1.00000
    126     -56.7438      1.00000
    127     -56.7438      1.00000
    128     -56.7438      1.00000
    129     -12.9355      1.00000
    130     -12.1929      1.00000
    131     -12.1929      1.00000
    132     -12.1929      1.00000
    133     -12.1929      1.00000
    134     -12.1929      1.00000
    135     -12.1929      1.00000
    136     -11.7179      1.00000
    137     -11.7179      1.00000
    138     -11.7179      1.00000
    139     -11.7179      1.00000
    140     -11.7179      1.00000
    141     -11.7179      1.00000
    142     -11.7179      1.00000
    143     -11.7179      1.00000
    144     -11.7179      1.00000
    145     -11.7179      1.00000
    146     -11.7179      1.00000
    147     -11.7179      1.00000
    148     -11.5938      1.00000
    149     -11.5938      1.00000
    150     -11.5938      1.00000
    151     -11.5938      1.00000
    152     -11.5395      1.00000
    153     -11.5395      1.00000
    154     -11.5395      1.00000
    155     -11.4332      1.00000
    156     -11.4332      1.00000
    157     -11.4332      1.00000
    158     -11.4332      1.00000
    159     -11.4332      1.00000
    160     -11.4332      1.00000
    161      -0.7009      1.00000
    162      -0.7009      1.00000
    163      -0.7009      1.00000
    164      -0.7009      1.00000
    165       0.2771      1.00000
    166       0.2771      1.00000
    167       0.2771      1.00000
    168       0.2771      1.00000
    169       0.2771      1.00000
    170       0.2771      1.00000
    171       0.2771      1.00000
    172       0.2771      1.00000
    173       0.2771      1.00000
    174       0.2771      1.00000
    175       0.2771      1.00000
    176       0.2771      1.00000
    177       0.5532      1.00000
    178       0.5532      1.00000
    179       0.5532      1.00000
    180       0.9497      1.00000
    181       0.9497      1.00000
    182       0.9497      1.00000
    183       0.9497      1.00000
    184       0.9497      1.00000
    185       0.9497      1.00000
    186       1.3329      1.00000
    187       1.3329      1.00000
    188       1.3329      1.00000
    189       1.3329      1.00000
    190       1.3329      1.00000
    191       1.3329      1.00000
    192       1.3329      1.00000
    193       1.3329      1.00000
    194       1.3329      1.00000
    195       1.3329      1.00000
    196       1.3329      1.00000
    197       1.3329      1.00000
    198       1.5962      1.00000
    199       1.5962      1.00000
    200       1.5962      1.00000
    201       1.5962      1.00000
    202       1.5962      1.00000
    203       1.5962      1.00000
    204       1.7935      1.00000
    205       1.7935      1.00000
    206       1.7935      1.00000
    207       1.7935      1.00000
    208       1.7935      1.00000
    209       1.7935      1.00000
    210       1.7935      1.00000
    211       1.7935      1.00000
    212       1.9152      1.00000
    213       1.9152      1.00000
[...]
   0.879E-12 0.488E-12 0.158E-10   0.782E-13 0.121E-12 0.639E-13   -.381E-22 0.364E-22 0.496E-23   0.418E-12 -.190E-13 -.608E-12
   0.109E-11 0.427E-12 0.122E-11   -.355E-13 0.135E-12 0.128E-12   0.397E-22 0.926E-22 -.141E-21   -.872E-13 0.209E-12 -.623E-12
   0.961E-12 -.448E-12 0.166E-11   0.284E-13 0.142E-13 0.639E-13   -.459E-22 -.794E-22 0.604E-22   0.379E-12 0.205E-12 -.984E-12
   0.944E-12 -.910E-11 0.930E-11   -.711E-13 0.142E-13 0.128E-12   0.579E-22 -.744E-23 -.139E-22   0.311E-12 -.477E-13 -.182E-12
   0.163E-11 0.463E-12 -.460E-11   -.995E-13 0.114E-12 0.639E-13   -.397E-22 -.678E-22 0.827E-24   0.844E-12 -.121E-12 -.815E-13
   0.141E-11 0.600E-12 -.542E-10   -.142E-13 0.114E-12 0.128E-12   0.248E-22 0.480E-22 -.645E-22   0.130E-11 -.121E-12 -.420E-12
   0.154E-11 -.955E-11 -.857E-11   -.711E-13 0.142E-12 0.711E-14   -.385E-22 -.612E-22 0.248E-22   0.928E-12 0.907E-13 -.433E-12
   0.154E-11 0.123E-10 -.772E-11   0.995E-13 0.142E-12 0.128E-12   0.126E-21 0.215E-22 0.625E-22   0.973E-12 0.830E-13 -.207E-12
   0.867E-12 0.709E-11 -.225E-11   0.115E-12 0.349E-12 0.643E-13   -.612E-22 0.695E-22 -.128E-22   0.157E-12 0.112E-11 0.177E-11
   0.837E-12 -.646E-11 -.476E-11   0.355E-13 0.349E-12 0.125E-12   0.265E-22 0.658E-22 0.695E-22   0.489E-12 0.704E-12 -.103E-11
   0.917E-12 -.617E-11 -.296E-11   -.355E-13 0.360E-12 0.643E-13   -.116E-22 0.463E-22 -.966E-22   0.403E-12 -.786E-12 0.202E-11
   0.105E-11 0.150E-13 -.115E-10   -.114E-12 0.374E-12 0.182E-12   0.827E-23 -.827E-23 0.165E-22   0.228E-12 -.352E-12 -.123E-11
   0.160E-11 0.584E-11 0.167E-10   -.426E-13 0.363E-12 0.121E-12   0.376E-22 0.145E-22 -.503E-22   0.122E-11 0.129E-11 0.168E-11
   0.162E-11 0.848E-12 -.192E-10   -.853E-13 0.349E-12 0.125E-12   -.116E-22 0.459E-22 0.000E+00   0.872E-12 0.103E-11 -.164E-12
   0.155E-11 -.362E-10 0.137E-10   -.142E-13 0.396E-12 0.643E-13   0.401E-22 -.312E-22 0.860E-22   0.948E-12 -.828E-12 0.163E-11
   0.140E-11 0.251E-11 0.236E-11   0.284E-12 0.310E-12 0.680E-13   0.165E-23 -.662E-23 0.364E-22   0.108E-11 -.591E-12 -.280E-12
   0.159E-12 0.389E-12 -.277E-12   -.160E-13 -.346E-13 -.654E-14   0.463E-22 -.480E-22 0.463E-22   -.221E-12 -.831E-13 0.863E-12
   0.213E-12 0.331E-12 -.936E-11   -.853E-13 -.213E-13 0.181E-14   0.290E-23 -.244E-22 0.182E-22   -.208E-12 0.604E-13 -.381E-12
   0.142E-12 0.893E-12 -.104E-10   -.977E-13 -.533E-14 -.654E-14   0.493E-22 -.182E-22 0.405E-22   -.163E-12 0.922E-13 0.830E-12
   0.170E-12 0.104E-11 0.588E-12   -.853E-13 -.213E-13 0.181E-14   -.364E-22 -.414E-23 -.902E-22   -.145E-12 -.585E-13 -.344E-12
   0.531E-12 0.394E-12 0.226E-11   -.577E-13 -.204E-13 0.145E-14   -.232E-22 0.331E-23 -.327E-22   0.358E-12 -.128E-12 0.602E-12
   0.479E-12 0.386E-12 -.153E-11   -.711E-13 -.711E-14 0.270E-14   -.347E-22 -.281E-22 0.165E-22   0.339E-12 -.287E-13 -.217E-12
   0.540E-12 -.100E-11 0.131E-10   -.888E-15 -.533E-14 0.566E-15   0.232E-22 -.409E-22 -.562E-22   0.321E-12 0.781E-13 0.670E-12
   0.510E-12 0.505E-11 -.107E-11   -.142E-13 -.711E-14 0.181E-14   0.401E-22 0.207E-22 0.265E-22   0.303E-12 -.133E-13 -.216E-12
   0.738E-13 -.179E-11 0.953E-12   -.524E-13 0.891E-14 0.000E+00   0.244E-22 0.496E-22 -.182E-22   -.844E-13 0.209E-12 -.207E-12
   0.144E-12 0.393E-11 0.239E-11   -.240E-13 -.497E-13 0.000E+00   0.506E-23 0.174E-22 -.265E-22   -.197E-12 0.243E-12 0.129E-12
   0.192E-12 0.424E-11 0.256E-11   -.355E-13 0.927E-14 0.000E+00   -.165E-22 -.190E-22 -.397E-22   -.186E-12 -.241E-12 -.363E-12
   0.180E-12 -.790E-12 0.215E-11   -.107E-12 0.839E-14 0.000E+00   0.199E-22 -.835E-22 0.786E-23   -.235E-12 -.274E-12 0.271E-12
   0.570E-12 0.485E-11 -.128E-11   -.231E-13 -.337E-13 0.888E-15   0.207E-22 -.571E-22 -.124E-22   0.268E-12 0.291E-12 -.149E-12
   0.501E-12 0.160E-10 -.823E-11   0.533E-14 -.497E-13 0.888E-15   0.414E-22 -.256E-22 0.232E-22   0.385E-12 0.258E-12 0.574E-13
   0.453E-12 -.812E-11 0.117E-10   -.497E-13 0.927E-14 0.000E+00   -.645E-22 -.443E-22 -.993E-23   0.349E-12 -.284E-12 -.241E-12
   0.464E-12 0.157E-11 -.448E-11   0.213E-13 0.226E-13 0.000E+00   0.728E-22 -.546E-22 -.405E-22   0.391E-12 -.255E-12 0.154E-12
   0.284E-12 0.383E-12 0.129E-12   0.959E-13 -.364E-13 -.133E-13   -.645E-22 0.467E-22 0.662E-23   0.673E-12 -.894E-13 -.180E-12
   0.326E-12 0.361E-12 0.391E-12   0.112E-12 -.364E-13 -.622E-14   0.207E-22 0.869E-23 -.226E-22   0.463E-12 -.665E-15 0.126E-12
   0.260E-12 0.101E-12 0.120E-12   0.709E-13 -.213E-13 -.133E-13   0.620E-23 0.132E-22 0.993E-23   0.587E-12 0.950E-13 -.297E-12
   0.300E-12 -.139E-12 -.169E-12   0.169E-12 -.355E-13 -.622E-14   -.165E-23 0.132E-22 -.662E-23   0.442E-12 0.160E-13 0.217E-12
   0.425E-13 0.297E-12 0.190E-10   0.144E-12 -.355E-13 -.142E-13   -.165E-23 0.232E-22 -.464E-22   -.922E-12 -.433E-13 -.195E-12
   -.742E-15 0.357E-12 0.316E-11   0.101E-12 -.355E-13 -.711E-14   0.109E-21 -.513E-22 0.124E-22   -.713E-12 -.320E-13 0.699E-13
   0.863E-13 0.501E-11 0.827E-11   0.115E-12 -.711E-14 -.142E-13   -.135E-21 0.827E-24 0.256E-22   -.847E-12 -.440E-13 -.301E-12
   0.469E-13 0.575E-11 0.490E-11   0.100E-12 -.711E-14 -.711E-14   -.256E-22 0.298E-22 0.124E-22   -.695E-12 -.514E-13 0.184E-12
   0.269E-12 0.880E-13 0.502E-12   0.798E-13 -.627E-14 -.156E-13   -.368E-22 -.210E-22 -.149E-22   0.623E-12 0.284E-12 0.702E-12
   0.272E-12 0.810E-13 0.181E-12   0.108E-12 -.205E-13 -.839E-14   -.993E-23 0.248E-22 -.364E-22   0.556E-12 0.182E-12 -.164E-12
   0.272E-12 0.317E-12 0.479E-12   0.105E-12 0.762E-14 -.151E-13   0.414E-23 -.132E-22 0.116E-22   0.596E-12 -.307E-12 0.764E-12
   0.324E-12 -.244E-12 -.571E-13   0.771E-13 0.756E-14 -.795E-14   0.266E-22 -.434E-22 -.265E-22   0.480E-12 -.210E-12 -.273E-12
   0.658E-13 0.181E-10 -.119E-10   0.139E-12 0.671E-14 -.143E-13   -.236E-22 -.178E-22 -.471E-22   -.874E-12 0.326E-12 0.755E-12
   0.624E-13 0.735E-11 0.829E-11   0.167E-12 -.218E-13 -.715E-14   -.331E-23 -.285E-22 -.976E-22   -.802E-12 0.220E-12 -.342E-12
   0.625E-13 0.265E-11 -.119E-10   0.165E-12 -.693E-14 -.139E-13   0.151E-22 0.165E-23 -.132E-22   -.839E-12 -.357E-12 0.753E-12
   0.135E-13 0.554E-11 0.422E-11   0.941E-13 0.722E-14 -.671E-14   -.397E-22 -.178E-22 0.248E-23   -.721E-12 -.257E-12 -.365E-12
 -----------------------------------------------------------------------------------------------
   0.317E-10 0.105E-09 -.616E-10   -.239E-13 0.223E-12 0.233E-12   -.527E-22 0.134E-21 -.671E-21   0.624E-11 0.325E-11 0.437E-11
 
 
 POSITION                                       TOTAL-FORCE (eV/Angst)
 -----------------------------------------------------------------------------------
      0.00000      0.00000      0.00000        -0.000000     -0.000000     -0.000000
      0.00000      0.00000      4.18658        -0.000000     -0.000000     -0.000000
      0.00000      4.18658      0.00000        -0.000000      0.000000      0.000000
      0.00000      4.18658      4.18658         0.000000      0.000000      0.000000
      4.18658      0.00000      0.00000        -0.000000     -0.000000      0.000000
      4.18658      0.00000      4.18658         0.000000      0.000000      0.000000
      4.18658      4.18658      0.00000         0.000000     -0.000000     -0.000000
      4.18658      4.18658      4.18658        -0.000000     -0.000000      0.000000
      0.00000      2.09329      2.09329         0.000000      0.000000     -0.000000
      0.00000      2.09329      6.27987         0.000000     -0.000000      0.000000
      0.00000      6.27987      2.09329        -0.000000      0.000000     -0.000000
      0.00000      6.27987      6.27987        -0.000000     -0.000000      0.000000
      4.18658      2.09329      2.09329         0.000000     -0.000000     -0.000000
      4.18658      2.09329      6.27987        -0.000000     -0.000000      0.000000
      4.18658      6.27987      2.09329         0.000000      0.000000     -0.000000
      4.18658      6.27987      6.27987        -0.000000     -0.000000      0.000000
      2.09329      0.00000      2.09329        -0.000000      0.000000     -0.000000
      2.09329      0.00000      6.27987        -0.000000     -0.000000      0.000000
      2.09329      4.18658      2.09329         0.000000      0.000000     -0.000000
      2.09329      4.18658      6.27987         0.000000     -0.000000      0.000000
      6.27987      0.00000      2.09329         0.000000      0.000000     -0.000000
      6.27987      0.00000      6.27987        -0.000000      0.000000     -0.000000
      6.27987      4.18658      2.09329         0.000000      0.000000     -0.000000
      6.27987      4.18658      6.27987        -0.000000     -0.000000      0.000000
      2.09329      2.09329      0.00000         0.000000     -0.000000     -0.000000
      2.09329      2.09329      4.18658        -0.000000      0.000000     -0.000000
      2.09329      6.27987      0.00000        -0.000000     -0.000000      0.000000
      2.09329      6.27987      4.18658         0.000000      0.000000      0.000000
      6.27987      2.09329      0.00000         0.000000     -0.000000      0.000000
      6.27987      2.09329      4.18658         0.000000     -0.000000      0.000000
      6.27987      6.27987      0.00000         0.000000      0.000000     -0.000000
      6.27987      6.27987      4.18658        -0.000000      0.000000      0.000000
      2.09329      0.00000      0.00000        -0.000000      0.000000     -0.000000
      2.09329      0.00000      4.18658        -0.000000     -0.000000     -0.000000
      2.09329      4.18658      0.00000         0.000000     -0.000000      0.000000
      2.09329      4.18658      4.18658        -0.000000     -0.000000     -0.000000
      6.27987      0.00000      0.00000        -0.000000      0.000000      0.000000
      6.27987      0.00000      4.18658         0.000000      0.000000     -0.000000
      6.27987      4.18658      0.00000        -0.000000      0.000000     -0.000000
      6.27987      4.18658      4.18658         0.000000     -0.000000      0.000000
      2.09329      2.09329      2.09329         0.000000      0.000000      0.000000
      2.09329      2.09329      6.27987        -0.000000     -0.000000     -0.000000
      2.09329      6.27987      2.09329         0.000000     -0.000000     -0.000000
      2.09329      6.27987      6.27987        -0.000000      0.000000     -0.000000
      6.27987      2.09329      2.09329        -0.000000     -0.000000     -0.000000
      6.27987      2.09329      6.27987        -0.000000      0.000000     -0.000000
      6.27987      6.27987      2.09329        -0.000000     -0.000000      0.000000
      6.27987      6.27987      6.27987        -0.000000     -0.000000      0.000000
      0.00000      0.00000      2.09329         0.000000      0.000000      0.000000
      0.00000      0.00000      6.27987        -0.000000     -0.000000     -0.000000
      0.00000      4.18658      2.09329        -0.000000     -0.000000      0.000000
      0.00000      4.18658      6.27987         0.000000      0.000000     -0.000000
      4.18658      0.00000      2.09329        -0.000000     -0.000000      0.000000
      4.18658      0.00000      6.27987         0.000000     -0.000000      0.000000
      4.18658      4.18658      2.09329         0.000000      0.000000      0.000000
      4.18658      4.18658      6.27987        -0.000000      0.000000      0.000000
      0.00000      2.09329      0.00000        -0.000000      0.000000     -0.000000
      0.00000      2.09329      4.18658         0.000000      0.000000     -0.000000
      0.00000      6.27987      0.00000         0.000000     -0.000000     -0.000000
      0.00000      6.27987      4.18658         0.000000     -0.000000      0.000000
      4.18658      2.09329      0.00000        -0.000000      0.000000     -0.000000
      4.18658      2.09329      4.18658        -0.000000     -0.000000      0.000000
      4.18658      6.27987      0.00000         0.000000     -0.000000     -0.000000
      4.18658      6.27987      4.18658        -0.000000     -0.000000      0.000000
 -----------------------------------------------------------------------------------
    total drift:                                0.000000      0.000000     -0.000000


--------------------------------------------------------------------------------------------------------



  FREE ENERGIE OF THE ION-ELECTRON SYSTEM (eV)
  ---------------------------------------------------
  free  energy   TOTEN  =      -393.20112037 eV

  energy  without entropy=     -393.20086962  energy(sigma->0) =     -393.20099500
 


--------------------------------------------------------------------------------------------------------


    POTLOK:  cpu time    1.3630: real time    1.3626


--------------------------------------------------------------------------------------------------------


 writing wavefunctions
     LOOP+:  cpu time  295.3453: real time  295.3613
    4ORBIT:  cpu time    0.0000: real time    0.0000
 


 total charge     
 
# of ion       s       p       d       f       tot
--------------------------------------------------
    1        2.149   6.210   7.830   0.009  16.198
    2        2.149   6.210   7.830   0.009  16.198
    3        2.149   6.210   7.830   0.009  16.198
    4        2.149   6.210   7.830   0.009  16.198
    5        2.149   6.210   7.830   0.009  16.198
    6        2.149   6.210   7.830   0.009  16.198
    7        2.149   6.210   7.830   0.009  16.198
    8        2.149   6.210   7.830   0.009  16.198
    9        2.149   6.210   7.830   0.009  16.198
   10        2.149   6.210   7.830   0.009  16.198
   11        2.149   6.210   7.830   0.009  16.198
   12        2.149   6.210   7.830   0.009  16.198
   13        2.149   6.210   7.830   0.009  16.198
   14        2.149   6.210   7.830   0.009  16.198
   15        2.149   6.210   7.830   0.009  16.198
   16        2.149   6.210   7.830   0.009  16.198
   17        2.149   6.210   7.830   0.009  16.198
   18        2.149   6.210   7.830   0.009  16.198
   19        2.149   6.210   7.830   0.009  16.198
   20        2.149   6.210   7.830   0.009  16.198
   21        2.149   6.210   7.830   0.009  16.198
   22        2.149   6.210   7.830   0.009  16.198
   23        2.149   6.210   7.830   0.009  16.198
   24        2.149   6.210   7.830   0.009  16.198
   25        2.149   6.210   7.830   0.009  16.198
   26        2.149   6.210   7.830   0.009  16.198
   27        2.149   6.210   7.830   0.009  16.198
   28        2.149   6.210   7.830   0.009  16.198
   29        2.149   6.210   7.830   0.009  16.198
   30        2.149   6.210   7.830   0.009  16.198
   31        2.149   6.210   7.830   0.009  16.198
   32        2.149   6.210   7.830   0.009  16.198
   33        1.630   3.527   0.019   0.000   5.176
   34        1.630   3.527   0.019   0.000   5.176
   35        1.630   3.527   0.019   0.000   5.176
   36        1.630   3.527   0.019   0.000   5.176
   37        1.630   3.527   0.019   0.000   5.176
   38        1.630   3.527   0.019   0.000   5.176
   39        1.630   3.527   0.019   0.000   5.176
   40        1.630   3.527   0.019   0.000   5.176
   41        1.630   3.527   0.019   0.000   5.176
   42        1.630   3.527   0.019   0.000   5.176
   43        1.630   3.527   0.019   0.000   5.176
   44        1.630   3.527   0.019   0.000   5.176
   45        1.630   3.527   0.019   0.000   5.176
   46        1.630   3.527   0.019   0.000   5.176
   47        1.630   3.527   0.019   0.000   5.176
   48        1.630   3.527   0.019   0.000   5.176
   49        1.630   3.527   0.019   0.000   5.176
   50        1.630   3.527   0.019   0.000   5.176
   51        1.630   3.527   0.019   0.000   5.176
   52        1.630   3.527   0.019   0.000   5.176
   53        1.630   3.527   0.019   0.000   5.176
   54        1.630   3.527   0.019   0.000   5.176
   55        1.630   3.527   0.019   0.000   5.176
   56        1.630   3.527   0.019   0.000   5.176
   57        1.630   3.527   0.019   0.000   5.176
   58        1.630   3.527   0.019   0.000   5.176
   59        1.630   3.527   0.019   0.000   5.176
   60        1.630   3.527   0.019   0.000   5.176
   61        1.630   3.527   0.019   0.000   5.176
   62        1.630   3.527   0.019   0.000   5.176
   63        1.630   3.527   0.019   0.000   5.176
   64        1.630   3.527   0.019   0.000   5.176
--------------------------------------------------
tot        120.920 311.583 251.167   0.288 683.957

 


 magnetization (x)
 
# of ion       s       p       d       f       tot
--------------------------------------------------
    1        0.006   0.010   1.015   0.001   1.032
    2        0.006   0.010   1.015   0.001   1.032
    3        0.006   0.010   1.015   0.001   1.032
    4        0.006   0.010   1.015   0.001   1.032
    5        0.006   0.010   1.015   0.001   1.032
    6        0.006   0.010   1.015   0.001   1.032
    7        0.006   0.010   1.015   0.001   1.032
    8        0.006   0.010   1.015   0.001   1.032
    9        0.006   0.010   1.015   0.001   1.032
   10        0.006   0.010   1.015   0.001   1.032
   11        0.006   0.010   1.015   0.001   1.032
   12        0.006   0.010   1.015   0.001   1.032
   13        0.006   0.010   1.015   0.001   1.032
   14        0.006   0.010   1.015   0.001   1.032
   15        0.006   0.010   1.015   0.001   1.032
   16        0.006   0.010   1.015   0.001   1.032
   17        0.006   0.010   1.015   0.001   1.032
   18        0.006   0.010   1.015   0.001   1.032
   19        0.006   0.010   1.015   0.001   1.032
   20        0.006   0.010   1.015   0.001   1.032
   21        0.006   0.010   1.015   0.001   1.032
   22        0.006   0.010   1.015   0.001   1.032
   23        0.006   0.010   1.015   0.001   1.032
   24        0.006   0.010   1.015   0.001   1.032
   25        0.006   0.010   1.015   0.001   1.032
   26        0.006   0.010   1.015   0.001   1.032
   27        0.006   0.010   1.015   0.001   1.032
   28        0.006   0.010   1.015   0.001   1.032
   29        0.006   0.010   1.015   0.001   1.032
   30        0.006   0.010   1.015   0.001   1.032
   31        0.006   0.010   1.015   0.001   1.032
   32        0.006   0.010   1.015   0.001   1.032
   33        0.021   0.146   0.002   0.000   0.169
   34        0.021   0.146   0.002   0.000   0.169
   35        0.021   0.146   0.002   0.000   0.169
   36        0.021   0.146   0.002   0.000   0.169
   37        0.021   0.146   0.002   0.000   0.169
   38        0.021   0.146   0.002   0.000   0.169
   39        0.021   0.146   0.002   0.000   0.169
   40        0.021   0.146   0.002   0.000   0.169
   41        0.021   0.146   0.002   0.000   0.169
   42        0.021   0.146   0.002   0.000   0.169
   43        0.021   0.146   0.002   0.000   0.169
   44        0.021   0.146   0.002   0.000   0.169
   45        0.021   0.146   0.002   0.000   0.169
   46        0.021   0.146   0.002   0.000   0.169
   47        0.021   0.146   0.002   0.000   0.169
   48        0.021   0.146   0.002   0.000   0.169
   49        0.021   0.146   0.002   0.000   0.169
   50        0.021   0.146   0.002   0.000   0.169
   51        0.021   0.146   0.002   0.000   0.169
   52        0.021   0.146   0.002   0.000   0.169
   53        0.021   0.146   0.002   0.000   0.169
   54        0.021   0.146   0.002   0.000   0.169
   55        0.021   0.146   0.002   0.000   0.169
   56        0.021   0.146   0.002   0.000   0.169
   57        0.021   0.146   0.002   0.000   0.169
   58        0.021   0.146   0.002   0.000   0.169
   59        0.021   0.146   0.002   0.000   0.169
   60        0.021   0.146   0.002   0.000   0.169
   61        0.021   0.146   0.002   0.000   0.169
   62        0.021   0.146   0.002   0.000   0.169
   63        0.021   0.146   0.002   0.000   0.169
   64        0.021   0.146   0.002   0.000   0.169
--------------------------------------------------
tot          0.864   5.004  32.558   0.020  38.446

 
