 vasp.5.4.4.18Apr17-6-g9f103f2a35 (build Oct 10 2019 09:51:33) complex          
  
 executed on   carbon_intel19_gpu date 2020.09.25  15:58:26
 running on    1 total cores
 distrk:  each k-point on    1 cores,    1 groups
 distr:  one band on NCORES_PER_BAND=   1 cores,    1 groups


--------------------------------------------------------------------------------------------------------


 INCAR:
 POTCAR:    PAW_PBE Ni_sv_GW 05Dec2013            
 POTCAR:    PAW_PBE O_GW 19Mar2012                
 POTCAR:    PAW_PBE Ni_sv_GW 05Dec2013            
   VRHFIN =Ni:                                                                  
   LEXCH  = PE                                                                  
   EATOM  =  4642.8712 eV,  341.2414 Ry                                         
                                                                                
   TITEL  = PAW_PBE Ni_sv_GW 05Dec2013                                          
   LULTRA =        F    use ultrasoft PP ?                                      
   IUNSCR =        1    unscreen: 0-lin 1-nonlin 2-no                           
   RPACOR =    1.400    partial core radius                                     
   POMASS =   58.690; ZVAL   =   18.000    mass and valenz                      
   RCORE  =    1.900    outmost cutoff radius                                   
   RWIGS  =    2.100; RWIGS  =    1.111    wigner-seitz radius (au A)           
   ENMAX  =  389.645; ENMIN  =  292.234 eV                                      
   RCLOC  =    1.301    cutoff for local pot                                    
   LCOR   =        T    correct aug charges                                     
   LPAW   =        T    paw PP                                                  
   EAUG   = 1036.387                                                            
   RMAX   =    1.945    core radius for proj-oper                               
   RAUG   =    1.300    factor for augmentation sphere                          
   RDEP   =    1.972    radius for radial grids                                 
   RDEPT  =    1.600    core radius for aug-charge                              
                                                                                
   Atomic configuration                                                         
    8 entries                                                                   
     n  l   j            E        occ.                                          
     1  0  0.50     -8203.3308   2.0000                                         
     2  0  0.50      -972.7019   2.0000                                         
     2  1  1.50      -835.6236   6.0000                                         
     3  0  0.50      -102.6944   2.0000                                         
     3  1  1.50       -63.2363   6.0000                                         
     3  1  1.50       -68.0291   0.0000                                         
     3  2  2.50        -1.9692  10.0000                                         
     4  3  2.50        -1.3606   0.0000                                         
   Description                                                                  
     l       E           TYP  RCUT    TYP  RCUT                                 
     0   -102.6944069     23  1.400                                             
     0      1.3605826     23  1.700                                             
     0    204.0873900     23  1.400                                             
     1    -63.2363356     23  1.650                                             
     1    -68.0291300     23  1.650                                             
     1    136.0582600     23  1.650                                             
     2     -1.9691936     23  1.900                                             
     2     27.2116520     23  1.900                                             
     2    136.0582600     23  1.900                                             
     3     27.2116520     23  1.900                                             
     3    136.0582600     23  1.900                                             
  local pseudopotential read in
  partial core-charges read in
  partial kinetic energy density read in
  kinetic energy density of atom read in
  atomic valenz-charges read in
  non local Contribution for L=           0  read in
    real space projection operators read in
  non local Contribution for L=           0  read in
    real space projection operators read in
  non local Contribution for L=           0  read in
    real space projection operators read in
  non local Contribution for L=           1  read in
    real space projection operators read in
  non local Contribution for L=           1  read in
    real space projection operators read in
  non local Contribution for L=           1  read in
    real space projection operators read in
  non local Contribution for L=           2  read in
    real space projection operators read in
  non local Contribution for L=           2  read in
    real space projection operators read in
  non local Contribution for L=           2  read in
    real space projection operators read in
  non local Contribution for L=           3  read in
    real space projection operators read in
  non local Contribution for L=           3  read in
    real space projection operators read in
    PAW grid and wavefunctions read in
 
   number of l-projection  operators is LMAX  =          11
   number of lm-projection operators is LMMAX =          41
 
 POTCAR:    PAW_PBE O_GW 19Mar2012                
   VRHFIN =O: s2p4                                                              
   LEXCH  = PE                                                                  
   EATOM  =   432.3788 eV,   31.7789 Ry                                         
                                                                                
   TITEL  = PAW_PBE O_GW 19Mar2012                                              
   LULTRA =        F    use ultrasoft PP ?                                      
   IUNSCR =        1    unscreen: 0-lin 1-nonlin 2-no                           
   RPACOR =    0.800    partial core radius                                     
   POMASS =   16.000; ZVAL   =    6.000    mass and valenz                      
   RCORE  =    1.600    outmost cutoff radius                                   
   RWIGS  =    1.600; RWIGS  =    0.847    wigner-seitz radius (au A)           
   ENMAX  =  434.431; ENMIN  =  325.824 eV                                      
   ICORE  =        3    local potential                                         
   LCOR   =        T    correct aug charges                                     
   LPAW   =        T    paw PP                                                  
   EAUG   = 1139.609                                                            
   DEXC   =    0.000                                                            
   RMAX   =    1.629    core radius for proj-oper                               
   RAUG   =    1.300    factor for augmentation sphere                          
   RDEP   =    1.652    radius for radial grids                                 
   RDEPT  =    1.200    core radius for aug-charge                              
                                                                                
   Atomic configuration                                                         
    5 entries                                                                   
     n  l   j            E        occ.                                          
     1  0  0.50      -514.6923   2.0000                                         
     2  0  0.50       -23.9615   2.0000                                         
     2  1  0.50        -9.0305   4.0000                                         
     3  2  1.50        -9.5241   0.0000                                         
     4  3  2.50        -9.5241   0.0000                                         
   Description                                                                  
     l       E           TYP  RCUT    TYP  RCUT                                 
     0    -23.9615316     23  1.150                                             
     0    -25.3221142     23  1.150                                             
     0    244.9048680     23  1.300                                             
     1     -9.0304908     23  1.500                                             
     1     -6.9258396     23  1.500                                             
     1    122.4524340     23  1.500                                             
     2     13.6058260     23  1.500                                             
     2    190.4815640     23  1.600                                             
     3     54.4233040     23  1.400                                             
  local pseudopotential read in
  partial core-charges read in
  partial kinetic energy density read in
  kinetic energy density of atom read in
  atomic valenz-charges read in
  non local Contribution for L=           0  read in
    real space projection operators read in
  non local Contribution for L=           0  read in
    real space projection operators read in
  non local Contribution for L=           0  read in
    real space projection operators read in
  non local Contribution for L=           1  read in
    real space projection operators read in
  non local Contribution for L=           1  read in
    real space projection operators read in
  non local Contribution for L=           1  read in
    real space projection operators read in
  non local Contribution for L=           2  read in
    real space projection operators read in
  non local Contribution for L=           2  read in
    real space projection operators read in
    PAW grid and wavefunctions read in
 
   number of l-projection  operators is LMAX  =           8
   number of lm-projection operators is LMMAX =          22
 
 Optimization of the real space projectors (new method)

 maximal supplied QI-value         = 19.84
 optimisation between [QCUT,QGAM] = [ 12.50, 25.00] = [ 43.76,175.03] Ry 
 Optimized for a Real-space Cutoff    1.31 Angstroem

   l    n(q)    QCUT    max X(q) W(low)/X(q) W(high)/X(q)  e(spline) 
   0     10    12.501     2.300    0.65E-05    0.25E-06    0.79E-07
   0     10    12.501     7.576    0.25E-04    0.52E-05    0.18E-06
   0     10    12.501     1.388    0.34E-04    0.75E-05    0.48E-06
   1      9    12.501    11.002    0.11E-03    0.24E-03    0.54E-06
   1      9    12.501    14.537    0.90E-04    0.23E-03    0.70E-06
   1      9    12.501     3.893    0.34E-04    0.51E-04    0.68E-06
   2      9    12.501    14.869    0.32E-03    0.35E-03    0.49E-06
   2      9    12.501     7.291    0.12E-03    0.20E-03    0.30E-06
   2      9    12.501     6.907    0.35E-03    0.37E-03    0.52E-06
   3      8    12.501    10.598    0.33E-03    0.15E-03    0.57E-06
   3      8    12.501     2.997    0.28E-03    0.16E-03    0.51E-06
 Optimization of the real space projectors (new method)

 maximal supplied QI-value         = 23.62
 optimisation between [QCUT,QGAM] = [ 12.52, 25.04] = [ 43.89,175.56] Ry 
 Optimized for a Real-space Cutoff    1.35 Angstroem

   l    n(q)    QCUT    max X(q) W(low)/X(q) W(high)/X(q)  e(spline) 
   0     10    12.519   116.464    0.13E-03    0.15E-03    0.46E-05
   0     10    12.519   116.329    0.13E-03    0.15E-03    0.44E-05
   0     10    12.519     0.942    0.35E-04    0.90E-04    0.23E-05
   1     10    12.519   133.003    0.28E-03    0.77E-04    0.26E-05
   1     10    12.519   116.443    0.28E-03    0.76E-04    0.26E-05
   1     10    12.519     2.481    0.45E-03    0.95E-04    0.45E-05
   2      9    12.519     2.237    0.21E-04    0.33E-04    0.21E-06
   2      9    12.519     2.497    0.16E-03    0.12E-03    0.32E-06
  PAW_PBE Ni_sv_GW 05Dec2013            :
 energy of atom  1       EATOM=-4642.8712
 kinetic energy error for atom=    0.0555 (will be added to EATOM!!)
  PAW_PBE O_GW 19Mar2012                :
 energy of atom  2       EATOM= -432.3788
 kinetic energy error for atom=    0.0188 (will be added to EATOM!!)
 
 
 POSCAR: NiO                                     
  positions in direct lattice
  No initial velocities read in
 exchange correlation table for  LEXCH =        8
   RHO(1)=    0.500       N(1)  =     2000
   RHO(2)=  100.500       N(2)  =     4000
 


--------------------------------------------------------------------------------------------------------


 ion  position               nearest neighbor table
   1  0.000  0.000  0.000-  41 2.09  42 2.09  49 2.09  51 2.09  57 2.09  61 2.09
   2  0.000  0.000  0.500-  41 2.09  42 2.09  50 2.09  52 2.09  58 2.09  62 2.09
   3  0.000  0.500  0.000-  43 2.09  44 2.09  49 2.09  51 2.09  59 2.09  63 2.09
   4  0.000  0.500  0.500-  43 2.09  44 2.09  50 2.09  52 2.09  60 2.09  64 2.09
   5  0.500  0.000  0.000-  45 2.09  46 2.09  53 2.09  55 2.09  57 2.09  61 2.09
   6  0.500  0.000  0.500-  45 2.09  46 2.09  54 2.09  56 2.09  58 2.09  62 2.09
   7  0.500  0.500  0.000-  47 2.09  48 2.09  53 2.09  55 2.09  59 2.09  63 2.09
   8  0.500  0.500  0.500-  47 2.09  48 2.09  54 2.09  56 2.09  60 2.09  64 2.09
   9  0.250  0.250  0.000-  33 2.09  34 2.09  49 2.09  53 2.09  57 2.09  59 2.09
  10  0.250  0.250  0.500-  33 2.09  34 2.09  50 2.09  54 2.09  58 2.09  60 2.09
  11  0.250  0.750  0.000-  35 2.09  36 2.09  51 2.09  55 2.09  57 2.09  59 2.09
  12  0.250  0.750  0.500-  35 2.09  36 2.09  52 2.09  56 2.09  58 2.09  60 2.09
  13  0.750  0.250  0.000-  37 2.09  38 2.09  49 2.09  53 2.09  61 2.09  63 2.09
  14  0.750  0.250  0.500-  37 2.09  38 2.09  50 2.09  54 2.09  62 2.09  64 2.09
  15  0.750  0.750  0.000-  39 2.09  40 2.09  51 2.09  55 2.09  61 2.09  63 2.09
  16  0.750  0.750  0.500-  39 2.09  40 2.09  52 2.09  56 2.09  62 2.09  64 2.09
  17  0.250  0.000  0.250-  33 2.09  35 2.09  41 2.09  45 2.09  57 2.09  58 2.09
  18  0.250  0.000  0.750-  34 2.09  36 2.09  42 2.09  46 2.09  57 2.09  58 2.09
  19  0.250  0.500  0.250-  33 2.09  35 2.09  43 2.09  47 2.09  59 2.09  60 2.09
  20  0.250  0.500  0.750-  34 2.09  36 2.09  44 2.09  48 2.09  59 2.09  60 2.09
  21  0.750  0.000  0.250-  37 2.09  39 2.09  41 2.09  45 2.09  61 2.09  62 2.09
  22  0.750  0.000  0.750-  38 2.09  40 2.09  42 2.09  46 2.09  61 2.09  62 2.09
  23  0.750  0.500  0.250-  37 2.09  39 2.09  43 2.09  47 2.09  63 2.09  64 2.09
  24  0.750  0.500  0.750-  38 2.09  40 2.09  44 2.09  48 2.09  63 2.09  64 2.09
  25  0.000  0.250  0.250-  33 2.09  37 2.09  41 2.09  43 2.09  49 2.09  50 2.09
  26  0.000  0.250  0.750-  34 2.09  38 2.09  42 2.09  44 2.09  49 2.09  50 2.09
  27  0.000  0.750  0.250-  35 2.09  39 2.09  41 2.09  43 2.09  51 2.09  52 2.09
  28  0.000  0.750  0.750-  36 2.09  40 2.09  42 2.09  44 2.09  51 2.09  52 2.09
  29  0.500  0.250  0.250-  33 2.09  37 2.09  45 2.09  47 2.09  53 2.09  54 2.09
  30  0.500  0.250  0.750-  34 2.09  38 2.09  46 2.09  48 2.09  53 2.09  54 2.09
  31  0.500  0.750  0.250-  35 2.09  39 2.09  45 2.09  47 2.09  55 2.09  56 2.09
  32  0.500  0.750  0.750-  36 2.09  40 2.09  46 2.09  48 2.09  55 2.09  56 2.09
  33  0.250  0.250  0.250-   9 2.09  10 2.09  17 2.09  19 2.09  25 2.09  29 2.09
  34  0.250  0.250  0.750-   9 2.09  10 2.09  18 2.09  20 2.09  26 2.09  30 2.09
  35  0.250  0.750  0.250-  11 2.09  12 2.09  17 2.09  19 2.09  27 2.09  31 2.09
  36  0.250  0.750  0.750-  11 2.09  12 2.09  18 2.09  20 2.09  28 2.09  32 2.09
  37  0.750  0.250  0.250-  13 2.09  14 2.09  21 2.09  23 2.09  25 2.09  29 2.09
  38  0.750  0.250  0.750-  13 2.09  14 2.09  22 2.09  24 2.09  26 2.09  30 2.09
  39  0.750  0.750  0.250-  15 2.09  16 2.09  21 2.09  23 2.09  27 2.09  31 2.09
  40  0.750  0.750  0.750-  15 2.09  16 2.09  22 2.09  24 2.09  28 2.09  32 2.09
  41  0.000  0.000  0.250-   1 2.09   2 2.09  17 2.09  21 2.09  25 2.09  27 2.09
  42  0.000  0.000  0.750-   1 2.09   2 2.09  18 2.09  22 2.09  26 2.09  28 2.09
  43  0.000  0.500  0.250-   3 2.09   4 2.09  19 2.09  23 2.09  25 2.09  27 2.09
  44  0.000  0.500  0.750-   3 2.09   4 2.09  20 2.09  24 2.09  26 2.09  28 2.09
  45  0.500  0.000  0.250-   5 2.09   6 2.09  17 2.09  21 2.09  29 2.09  31 2.09
  46  0.500  0.000  0.750-   5 2.09   6 2.09  18 2.09  22 2.09  30 2.09  32 2.09
  47  0.500  0.500  0.250-   7 2.09   8 2.09  19 2.09  23 2.09  29 2.09  31 2.09
  48  0.500  0.500  0.750-   7 2.09   8 2.09  20 2.09  24 2.09  30 2.09  32 2.09
  49  0.000  0.250  0.000-   1 2.09   3 2.09   9 2.09  13 2.09  25 2.09  26 2.09
  50  0.000  0.250  0.500-   2 2.09   4 2.09  10 2.09  14 2.09  25 2.09  26 2.09
  51  0.000  0.750  0.000-   1 2.09   3 2.09  11 2.09  15 2.09  27 2.09  28 2.09
  52  0.000  0.750  0.500-   2 2.09   4 2.09  12 2.09  16 2.09  27 2.09  28 2.09
  53  0.500  0.250  0.000-   5 2.09   7 2.09   9 2.09  13 2.09  29 2.09  30 2.09
  54  0.500  0.250  0.500-   6 2.09   8 2.09  10 2.09  14 2.09  29 2.09  30 2.09
  55  0.500  0.750  0.000-   5 2.09   7 2.09  11 2.09  15 2.09  31 2.09  32 2.09
  56  0.500  0.750  0.500-   6 2.09   8 2.09  12 2.09  16 2.09  31 2.09  32 2.09
  57  0.250  0.000  0.000-   1 2.09   5 2.09   9 2.09  11 2.09  17 2.09  18 2.09
  58  0.250  0.000  0.500-   2 2.09   6 2.09  10 2.09  12 2.09  17 2.09  18 2.09
  59  0.250  0.500  0.000-   3 2.09   7 2.09   9 2.09  11 2.09  19 2.09  20 2.09
  60  0.250  0.500  0.500-   4 2.09   8 2.09  10 2.09  12 2.09  19 2.09  20 2.09
  61  0.750  0.000  0.000-   1 2.09   5 2.09  13 2.09  15 2.09  21 2.09  22 2.09
  62  0.750  0.000  0.500-   2 2.09   6 2.09  14 2.09  16 2.09  21 2.09  22 2.09
  63  0.750  0.500  0.000-   3 2.09   7 2.09  13 2.09  15 2.09  23 2.09  24 2.09
  64  0.750  0.500  0.500-   4 2.09   8 2.09  14 2.09  16 2.09  23 2.09  24 2.09
 
  LATTYP: Found a simple cubic cell.
 ALAT       =     8.3476610000
  
  Lattice vectors:
  
 A1 = (   8.3476610000,   0.0000000000,   0.0000000000)
 A2 = (   0.0000000000,   8.3476610000,   0.0000000000)
 A3 = (   0.0000000000,   0.0000000000,   8.3476610000)


Analysis of symmetry for initial positions (statically):
=====================================================================
 Subroutine PRICEL returns following result:
 
  LATTYP: Found a face centered cubic cell.
 ALAT       =     4.1738305000
  
  Lattice vectors:
  
 A1 = (   2.0869152500,   2.0869152500,   0.0000000000)
 A2 = (   2.0869152500,   0.0000000000,  -2.0869152500)
 A3 = (   0.0000000000,   2.0869152500,  -2.0869152500)
 
  32 primitive cells build up your supercell.
 

 Routine SETGRP: Setting up the symmetry group for a 
 simple cubic supercell.


 Subroutine GETGRP returns: Found 48 space group operations
 (whereof 48 operations were pure point group operations)
 out of a pool of 48 trial point group operations.


The static configuration has the point symmetry O_h .


Analysis of symmetry for dynamics (positions and initial velocities):
=====================================================================
 Subroutine PRICEL returns following result:
 
  LATTYP: Found a face centered cubic cell.
 ALAT       =     4.1738305000
  
  Lattice vectors:
  
 A1 = (   2.0869152500,   2.0869152500,   0.0000000000)
 A2 = (   2.0869152500,   0.0000000000,  -2.0869152500)
 A3 = (   0.0000000000,   2.0869152500,  -2.0869152500)
 
  32 primitive cells build up your supercell.
 

 Routine SETGRP: Setting up the symmetry group for a 
 simple cubic supercell.


 Subroutine GETGRP returns: Found 48 space group operations
 (whereof 48 operations were pure point group operations)
 out of a pool of 48 trial point group operations.


The dynamic configuration has the point symmetry O_h .


Analysis of structural, dynamic, and magnetic symmetry:
=====================================================================
 Subroutine PRICEL returns following result:
 
  LATTYP: Found a face centered cubic cell.
 ALAT       =     4.1738305000
  
  Lattice vectors:
  
 A1 = (   2.0869152500,   2.0869152500,   0.0000000000)
 A2 = (   2.0869152500,   0.0000000000,  -2.0869152500)
 A3 = (   0.0000000000,   2.0869152500,  -2.0869152500)
 
  32 primitive cells build up your supercell.
 

 Routine SETGRP: Setting up the symmetry group for a 
 simple cubic supercell.


 Subroutine GETGRP returns: Found 16 space group operations
 (whereof 16 operations were pure point group operations)
 out of a pool of 48 trial point group operations.


The magnetic configuration has the point symmetry D_4h.


 Subroutine INISYM returns: Found 16 space group operations
 (whereof 16 operations are pure point group operations),
 and found    32 'primitive' translations

 
 
 KPOINTS: k-points                                

Automatic generation of k-mesh.
Space group operators:
 irot       det(A)        alpha          n_x          n_y          n_z        tau_x        tau_y        tau_z
    1     1.000000     0.000000     1.000000     0.000000     0.000000     0.000000     0.000000     0.000000
    2    -1.000000     0.000000     1.000000     0.000000     0.000000     0.000000     0.000000     0.000000
    3     1.000000    90.000000     0.000000     0.000000    -1.000000     0.000000     0.000000     0.000000
    4    -1.000000    90.000000     0.000000     0.000000    -1.000000     0.000000     0.000000     0.000000
    5     1.000000   180.000000     0.000000     0.000000     1.000000     0.000000     0.000000     0.000000
    6    -1.000000   180.000000     0.000000     0.000000     1.000000     0.000000     0.000000     0.000000
    7     1.000000    90.000000     0.000000     0.000000     1.000000     0.000000     0.000000     0.000000
    8    -1.000000    90.000000     0.000000     0.000000     1.000000     0.000000     0.000000     0.000000
    9     1.000000   180.000000     1.000000     0.000000     0.000000     0.000000     0.000000     0.000000
   10    -1.000000   180.000000     1.000000     0.000000     0.000000     0.000000     0.000000     0.000000
   11     1.000000   180.000000     0.707107     0.707107     0.000000     0.000000     0.000000     0.000000
   12    -1.000000   180.000000     0.707107     0.707107     0.000000     0.000000     0.000000     0.000000
   13     1.000000   180.000000     0.000000     1.000000     0.000000     0.000000     0.000000     0.000000
   14    -1.000000   180.000000     0.000000     1.000000     0.000000     0.000000     0.000000     0.000000
   15     1.000000   180.000000     0.707107    -0.707107     0.000000     0.000000     0.000000     0.000000
   16    -1.000000   180.000000     0.707107    -0.707107     0.000000     0.000000     0.000000     0.000000
 
 Subroutine IBZKPT returns following result:
 ===========================================
 
 Found      6 irreducible k-points:
 
 Following reciprocal coordinates:
            Coordinates               Weight
  0.000000  0.000000  0.000000      1.000000
  0.333333  0.000000  0.000000      4.000000
  0.333333  0.333333  0.000000      4.000000
  0.000000  0.000000  0.333333      2.000000
  0.333333  0.000000  0.333333      8.000000
  0.333333  0.333333  0.333333      8.000000
 
 Following cartesian coordinates:
            Coordinates               Weight
  0.000000  0.000000  0.000000      1.000000
  0.333333  0.000000  0.000000      4.000000
  0.333333  0.333333  0.000000      4.000000
  0.000000  0.000000  0.333333      2.000000
  0.333333  0.000000  0.333333      8.000000
  0.333333  0.333333  0.333333      8.000000
 


--------------------------------------------------------------------------------------------------------




 Dimension of arrays:
   k-points           NKPTS =      6   k-points in BZ     NKDIM =      6   number of bands    NBANDS=    460
   number of dos      NEDOS =    301   number of ions     NIONS =     64
   non local maximal  LDIM  =     11   non local SUM 2l+1 LMDIM =     41
   total plane-waves  NPLWV = 125000
   max r-space proj   IRMAX =   2244   max aug-charges    IRDMAX=   4943
   dimension x,y,z NGX =    50 NGY =   50 NGZ =   50
   dimension x,y,z NGXF=   100 NGYF=  100 NGZF=  100
   support grid    NGXF=   100 NGYF=  100 NGZF=  100
   ions per type =              32  32
   NGX,Y,Z   is equivalent  to a cutoff of   9.96,  9.96,  9.96 a.u.
   NGXF,Y,Z  is equivalent  to a cutoff of  19.92, 19.92, 19.92 a.u.

 SYSTEM =  NiO                                     
 POSCAR =  NiO                                     

 Startparameter for this run:
   NWRITE =      2    write-flag & timer
   PREC   = normal    normal or accurate (medium, high low for compatibility)
   ISTART =      1    job   : 0-new  1-cont  2-samecut
   ICHARG =      2    charge: 1-file 2-atom 10-const
   ISPIN  =      2    spin polarized calculation?
   LNONCOLLINEAR =      F non collinear calculations
   LSORBIT =      F    spin-orbit coupling
   INIWAV =      1    electr: 0-lowe 1-rand  2-diag
   LASPH  =      F    aspherical Exc in radial PAW
   METAGGA=      F    non-selfconsistent MetaGGA calc.

 Electronic Relaxation 1
   ENCUT  =  600.0 eV  44.10 Ry    6.64 a.u.  16.67 16.67 16.67*2*pi/ulx,y,z
   ENINI  =  600.0     initial cutoff
   ENAUG  = 1200.0 eV  augmentation charge cutoff
   NELM   =    100;   NELMIN=  2; NELMDL=  0     # of ELM steps 
   EDIFF  = 0.1E-05   stopping-criterion for ELM
   LREAL  =      T    real-space projection
   NLSPLINE    = F    spline interpolate recip. space projectors
   LCOMPAT=      F    compatible to vasp.4.4
   GGA_COMPAT  = T    GGA compatible to vasp.4.4-vasp.4.6
   LMAXPAW     = -100 max onsite density
   LMAXMIX     =    4 max onsite mixed and CHGCAR
   VOSKOWN=      0    Vosko Wilk Nusair interpolation
   ROPT   =   -0.00050  -0.00050
 Ionic relaxation
   EDIFFG = -.1E-03   stopping-criterion for IOM
   NSW    =      0    number of steps for IOM
   NBLOCK =      1;   KBLOCK =      1    inner block; outer block 
   IBRION =     -1    ionic relax: 0-MD 1-quasi-New 2-CG
   NFREE  =      1    steps in history (QN), initial steepest desc. (CG)
   ISIF   =      2    stress and relaxation
   IWAVPR =     10    prediction:  0-non 1-charg 2-wave 3-comb
   ISYM   =      2    0-nonsym 1-usesym 2-fastsym
   LCORR  =      T    Harris-Foulkes like correction to forces

   POTIM  = 0.2000    time-step for ionic-motion
   TEIN   =    0.0    initial temperature
   TEBEG  =    0.0;   TEEND  =   0.0 temperature during run
   SMASS  =  -3.00    Nose mass-parameter (am)
   estimated Nose-frequenzy (Omega)   =  0.10E-29 period in steps =****** mass=  -0.159E-26a.u.
   SCALEE = 1.0000    scale energy and forces
   NPACO  =    256;   APACO  = 16.0  distance and # of slots for P.C.
   PSTRESS=    0.0 pullay stress

  Mass of Ions in am
   POMASS =  58.69 16.00
  Ionic Valenz
   ZVAL   =  18.00  6.00
  Atomic Wigner-Seitz radii
   RWIGS  =  -1.00 -1.00
  virtual crystal weights 
   VCA    =   1.00  1.00
   NELECT =     768.0000    total number of electrons
   NUPDOWN=      -1.0000    fix difference up-down

 DOS related values:
   EMIN   =  10.00;   EMAX   =-10.00  energy-range for DOS
   EFERMI =   0.00
   ISMEAR =     0;   SIGMA  =   0.00  broadening in eV -4-tet -1-fermi 0-gaus

 Electronic relaxation 2 (details)
   IALGO  =     38    algorithm
   LDIAG  =      T    sub-space diagonalisation (order eigenvalues)
   LSUBROT=      F    optimize rotation matrix (better conditioning)
   TURBO    =      0    0=normal 1=particle mesh
   IRESTART =      0    0=no restart 2=restart with 2 vectors
   NREBOOT  =      0    no. of reboots
   NMIN     =      0    reboot dimension
   EREF     =   0.00    reference energy to select bands
   IMIX   =      4    mixing-type and parameters
     AMIX     =   0.40;   BMIX     =  1.00
     AMIX_MAG =   1.60;   BMIX_MAG =  1.00
     AMIN     =   0.10
     WC   =   100.;   INIMIX=   1;  MIXPRE=   1;  MAXMIX= -45

 Intra band minimization:
   WEIMIN = 0.0000     energy-eigenvalue tresh-hold
   EBREAK =  0.54E-09  absolut break condition
   DEPER  =   0.30     relativ break condition  

   TIME   =   0.40     timestep for ELM

  volume/ion in A,a.u.               =       9.09        61.34
  Fermi-wavevector in a.u.,A,eV,Ry     =   1.795962  3.393876 43.885304  3.225479
  Thomas-Fermi vector in A             =   2.857607
 
 Write flags
   LWAVE        =      T    write WAVECAR
   LDOWNSAMPLE  =      F    k-point downsampling of WAVECAR
   LCHARG       =      T    write CHGCAR
   LVTOT        =      F    write LOCPOT, total local potential
   LVHAR        =      F    write LOCPOT, Hartree potential only
   LELF         =      F    write electronic localiz. function (ELF)
   LORBIT       =     11    0 simple, 1 ext, 2 COOP (PROOUT), +10 PAW based schemes


 Dipole corrections
   LMONO  =      F    monopole corrections only (constant potential shift)
   LDIPOL =      F    correct potential (dipole corrections)
   IDIPOL =      0    1-x, 2-y, 3-z, 4-all directions 
   EPSILON=  1.0000000 bulk dielectric constant

 Exchange correlation treatment:
   GGA     =    --    GGA type
   LEXCH   =     8    internal setting for exchange type
   VOSKOWN=      0    Vosko Wilk Nusair interpolation
   LHFCALC =     F    Hartree Fock is set to
   LHFONE  =     F    Hartree Fock one center treatment
   AEXX    =    0.0000 exact exchange contribution

 Linear response parameters
   LEPSILON=     F    determine dielectric tensor
   LRPA    =     F    only Hartree local field effects (RPA)
   LNABLA  =     F    use nabla operator in PAW spheres
   LVEL    =     F    velocity operator in full k-point grid
   LINTERFAST=   F  fast interpolation
   KINTER  =     0    interpolate to denser k-point grid
   CSHIFT  =0.1000    complex shift for real part using Kramers Kronig
   OMEGAMAX=  -1.0    maximum frequency
   DEG_THRESHOLD= 0.2000000E-02 threshold for treating states as degnerate
   RTIME   =   -0.100 relaxation time in fs
  (WPLASMAI=    0.000 imaginary part of plasma frequency in eV, 0.658/RTIME)
   DFIELD  = 0.0000000 0.0000000 0.0000000 field for delta impulse in time
 
 Orbital magnetization related:
   ORBITALMAG=     F  switch on orbital magnetization
   LCHIMAG   =     F  perturbation theory with respect to B field
   DQ        =  0.001000  dq finite difference perturbation B field
   LLRAUG    =     F  two centre corrections for induced B field



--------------------------------------------------------------------------------------------------------


 Static calculation
 charge density and potential will be updated during run
 spin polarized calculation
 Variant of blocked Davidson
 Davidson routine will perform the subspace rotation
 perform sub-space diagonalisation
    after iterative eigenvector-optimisation
 modified Broyden-mixing scheme, WC =      100.0
 initial mixing is a Kerker type mixing with AMIX =  0.4000 and BMIX =      1.0000
 Hartree-type preconditioning will be used
 using additional bands           76
 real space projection scheme for non local part
 use partial core corrections
 calculate Harris-corrections to forces 
   (improved forces if not selfconsistent)
 use gradient corrections 
 use of overlap-Matrix (Vanderbilt PP)
 Gauss-broadening in eV      SIGMA  =   0.00


--------------------------------------------------------------------------------------------------------


  energy-cutoff  :      600.00
  volume of cell :      581.69
      direct lattice vectors                 reciprocal lattice vectors
     8.347661000  0.000000000  0.000000000     0.119794036  0.000000000  0.000000000
     0.000000000  8.347661000  0.000000000     0.000000000  0.119794036  0.000000000
     0.000000000  0.000000000  8.347661000     0.000000000  0.000000000  0.119794036

  length of vectors
     8.347661000  8.347661000  8.347661000     0.119794036  0.119794036  0.119794036


 
 old parameters found on file WAVECAR:
  energy-cutoff  :      600.00
  volume of cell :      576.56
      direct lattice vectors                 reciprocal lattice vectors
     8.323012000  0.000000000  0.000000000     0.120148812  0.000000000  0.000000000
     0.000000000  8.323012000  0.000000000     0.000000000  0.120148812  0.000000000
     0.000000000  0.000000000  8.323012000     0.000000000  0.000000000  0.120148812

  length of vectors

 
 k-points in units of 2pi/SCALE and weight: k-points                                
   0.00000000  0.00000000  0.00000000       0.037
   0.33333333  0.00000000  0.00000000       0.148
   0.33333333  0.33333333  0.00000000       0.148
   0.00000000  0.00000000  0.33333333       0.074
   0.33333333  0.00000000  0.33333333       0.296
   0.33333333  0.33333333  0.33333333       0.296
 
 k-points in reciprocal lattice and weights: k-points                                
   0.00000000  0.00000000  0.00000000       0.037
   0.33333333  0.00000000  0.00000000       0.148
   0.33333333  0.33333333  0.00000000       0.148
   0.00000000  0.00000000  0.33333333       0.074
   0.33333333  0.00000000  0.33333333       0.296
   0.33333333  0.33333333  0.33333333       0.296
 
 position of ions in fractional coordinates (direct lattice) 
   0.00000000  0.00000000  0.00000000
   0.00000000  0.00000000  0.50000000
   0.00000000  0.50000000  0.00000000
   0.00000000  0.50000000  0.50000000
   0.50000000  0.00000000  0.00000000
   0.50000000  0.00000000  0.50000000
   0.50000000  0.50000000  0.00000000
   0.50000000  0.50000000  0.50000000
   0.25000000  0.25000000  0.00000000
   0.25000000  0.25000000  0.50000000
   0.25000000  0.75000000  0.00000000
   0.25000000  0.75000000  0.50000000
   0.75000000  0.25000000  0.00000000
   0.75000000  0.25000000  0.50000000
   0.75000000  0.75000000  0.00000000
   0.75000000  0.75000000  0.50000000
   0.25000000  0.00000000  0.25000000
   0.25000000  0.00000000  0.75000000
   0.25000000  0.50000000  0.25000000
   0.25000000  0.50000000  0.75000000
   0.75000000  0.00000000  0.25000000
   0.75000000  0.00000000  0.75000000
   0.75000000  0.50000000  0.25000000
   0.75000000  0.50000000  0.75000000
   0.00000000  0.25000000  0.25000000
   0.00000000  0.25000000  0.75000000
   0.00000000  0.75000000  0.25000000
   0.00000000  0.75000000  0.75000000
   0.50000000  0.25000000  0.25000000
   0.50000000  0.25000000  0.75000000
   0.50000000  0.75000000  0.25000000
   0.50000000  0.75000000  0.75000000
   0.25000000  0.25000000  0.25000000
   0.25000000  0.25000000  0.75000000
   0.25000000  0.75000000  0.25000000
   0.25000000  0.75000000  0.75000000
   0.75000000  0.25000000  0.25000000
   0.75000000  0.25000000  0.75000000
   0.75000000  0.75000000  0.25000000
   0.75000000  0.75000000  0.75000000
   0.00000000  0.00000000  0.25000000
   0.00000000  0.00000000  0.75000000
   0.00000000  0.50000000  0.25000000
   0.00000000  0.50000000  0.75000000
   0.50000000  0.00000000  0.25000000
   0.50000000  0.00000000  0.75000000
   0.50000000  0.50000000  0.25000000
   0.50000000  0.50000000  0.75000000
   0.00000000  0.25000000  0.00000000
   0.00000000  0.25000000  0.50000000
   0.00000000  0.75000000  0.00000000
   0.00000000  0.75000000  0.50000000
   0.50000000  0.25000000  0.00000000
   0.50000000  0.25000000  0.50000000
   0.50000000  0.75000000  0.00000000
   0.50000000  0.75000000  0.50000000
   0.25000000  0.00000000  0.00000000
   0.25000000  0.00000000  0.50000000
   0.25000000  0.50000000  0.00000000
   0.25000000  0.50000000  0.50000000
   0.75000000  0.00000000  0.00000000
   0.75000000  0.00000000  0.50000000
   0.75000000  0.50000000  0.00000000
   0.75000000  0.50000000  0.50000000
 
 position of ions in cartesian coordinates  (Angst):
   0.00000000  0.00000000  0.00000000
   0.00000000  0.00000000  4.17383050
   0.00000000  4.17383050  0.00000000
   0.00000000  4.17383050  4.17383050
   4.17383050  0.00000000  0.00000000
   4.17383050  0.00000000  4.17383050
   4.17383050  4.17383050  0.00000000
   4.17383050  4.17383050  4.17383050
   2.08691525  2.08691525  0.00000000
   2.08691525  2.08691525  4.17383050
   2.08691525  6.26074575  0.00000000
   2.08691525  6.26074575  4.17383050
   6.26074575  2.08691525  0.00000000
   6.26074575  2.08691525  4.17383050
   6.26074575  6.26074575  0.00000000
   6.26074575  6.26074575  4.17383050
   2.08691525  0.00000000  2.08691525
   2.08691525  0.00000000  6.26074575
   2.08691525  4.17383050  2.08691525
   2.08691525  4.17383050  6.26074575
   6.26074575  0.00000000  2.08691525
   6.26074575  0.00000000  6.26074575
   6.26074575  4.17383050  2.08691525
   6.26074575  4.17383050  6.26074575
   0.00000000  2.08691525  2.08691525
   0.00000000  2.08691525  6.26074575
   0.00000000  6.26074575  2.08691525
   0.00000000  6.26074575  6.26074575
   4.17383050  2.08691525  2.08691525
   4.17383050  2.08691525  6.26074575
   4.17383050  6.26074575  2.08691525
   4.17383050  6.26074575  6.26074575
   2.08691525  2.08691525  2.08691525
   2.08691525  2.08691525  6.26074575
   2.08691525  6.26074575  2.08691525
   2.08691525  6.26074575  6.26074575
   6.26074575  2.08691525  2.08691525
   6.26074575  2.08691525  6.26074575
   6.26074575  6.26074575  2.08691525
   6.26074575  6.26074575  6.26074575
   0.00000000  0.00000000  2.08691525
   0.00000000  0.00000000  6.26074575
   0.00000000  4.17383050  2.08691525
   0.00000000  4.17383050  6.26074575
   4.17383050  0.00000000  2.08691525
   4.17383050  0.00000000  6.26074575
   4.17383050  4.17383050  2.08691525
   4.17383050  4.17383050  6.26074575
   0.00000000  2.08691525  0.00000000
   0.00000000  2.08691525  4.17383050
   0.00000000  6.26074575  0.00000000
   0.00000000  6.26074575  4.17383050
   4.17383050  2.08691525  0.00000000
   4.17383050  2.08691525  4.17383050
   4.17383050  6.26074575  0.00000000
   4.17383050  6.26074575  4.17383050
   2.08691525  0.00000000  0.00000000
   2.08691525  0.00000000  4.17383050
   2.08691525  4.17383050  0.00000000
   2.08691525  4.17383050  4.17383050
   6.26074575  0.00000000  0.00000000
   6.26074575  0.00000000  4.17383050
   6.26074575  4.17383050  0.00000000
   6.26074575  4.17383050  4.17383050
 


--------------------------------------------------------------------------------------------------------


 k-point  1 :   0.0000 0.0000 0.0000  plane waves:   19381
 k-point  2 :   0.3333 0.0000 0.0000  plane waves:   19438
 k-point  3 :   0.3333 0.3333 0.0000  plane waves:   19402
 k-point  4 :   0.0000 0.0000 0.3333  plane waves:   19438
 k-point  5 :   0.3333 0.0000 0.3333  plane waves:   19402
 k-point  6 :   0.3333 0.3333 0.3333  plane waves:   19393

 maximum and minimum number of plane-waves per node :     19438    19381

 maximum number of plane-waves:     19438
 maximum index in each direction: 
   IXMAX=   16   IYMAX=   16   IZMAX=   16
   IXMIN=  -17   IYMIN=  -17   IZMIN=  -17


 serial   3D FFT for wavefunctions
 parallel 3D FFT for charge:
    minimum data exchange during FFTs selected (reduces bandwidth)


 total amount of memory used by VASP MPI-rank0  2099343. kBytes
=======================================================================

   base      :      30000. kBytes
   nonlr-proj:      38118. kBytes
   fftplans  :      34720. kBytes
   grid      :      91360. kBytes
   one-center:      10328. kBytes
   wavefun   :    1894817. kBytes
 
     INWAV:  cpu time    1.4773: real time    1.4767
 Broyden mixing: mesh for mixing (old mesh)
   NGX = 33   NGY = 33   NGZ = 33
  (NGX  =100   NGY  =100   NGZ  =100)
  gives a total of  35937 points

 initial charge density was supplied:
 charge density of overlapping atoms calculated
 number of electron     768.0000000 magnetization       0.0000000
 keeping initial charge density in first step


--------------------------------------------------------------------------------------------------------


 Maximum index for non-local projection operator         2176
 Maximum index for augmentation-charges         4625 (set IRDMAX)


--------------------------------------------------------------------------------------------------------


 First call to EWALD:  gamma=   0.212
 Maximum number of real-space cells 3x 3x 3
 Maximum number of reciprocal cells 3x 3x 3

    FEWALD:  cpu time    0.0122: real time    0.0122


----------------------------------------- Iteration    1(   1)  ---------------------------------------


    POTLOK:  cpu time    0.9581: real time    0.9576
    SETDIJ:  cpu time    0.3892: real time    0.3891
     EDDAV:  cpu time   20.4677: real time   20.4802
       DOS:  cpu time    0.0086: real time    0.0086
    CHARGE:  cpu time    4.3311: real time    4.3306
    MIXING:  cpu time    0.0215: real time    0.0215
    --------------------------------------------
      LOOP:  cpu time   26.1786: real time   26.1900

 eigenvalue-minimisations  : 19560
 total energy-change (2. order) :-0.5358032E+03  (-0.8437520E+02)
 number of electron     768.0004066 magnetization       0.0000000
 augmentation part      289.2727522 magnetization       0.0000000

 Broyden mixing:
  rms(total) = 0.14915E+02    rms(broyden)= 0.14907E+02
  rms(prec ) = 0.17755E+02
  weight for this iteration     100.00

 Free energy of the ion-electron system (eV)
  ---------------------------------------------------
  alpha Z        PSCENC =      5454.96200761
  Ewald energy   TEWEN  =   -104104.01822134
  -Hartree energ DENC   =    -49761.43779155
  -exchange      EXHF   =         0.00000000
  -V(xc)+E(xc)   XCENC  =      5194.83898885
  PAW double counting   =    134449.21163418  -140263.96355224
  entropy T*S    EENTRO =        -0.00031525
  eigenvalues    EBANDS =    -13911.01832785
  atomic energy  EATOM  =    162405.62235658
  Solvation  Ediel_sol  =         0.00000000
  ---------------------------------------------------
  free energy    TOTEN  =      -535.80322101 eV

  energy without entropy =     -535.80290576  energy(sigma->0) =     -535.80306339


--------------------------------------------------------------------------------------------------------




----------------------------------------- Iteration    1(   2)  ---------------------------------------


    POTLOK:  cpu time    0.9664: real time    0.9660
    SETDIJ:  cpu time    0.4101: real time    0.4101
     EDDAV:  cpu time   20.1765: real time   20.1849
       DOS:  cpu time    0.0082: real time    0.0082
    CHARGE:  cpu time    4.3176: real time    4.3165
    MIXING:  cpu time    0.0252: real time    0.0251
    --------------------------------------------
      LOOP:  cpu time   25.9047: real time   25.9115

 eigenvalue-minimisations  : 19280
 total energy-change (2. order) : 0.6497357E+02  (-0.1566805E+03)
 number of electron     768.0004600 magnetization       0.0000000
 augmentation part      334.2132675 magnetization       0.0000000

 Broyden mixing:
  rms(total) = 0.12005E+02    rms(broyden)= 0.12004E+02
  rms(prec ) = 0.14503E+02
  weight for this iteration     100.00

 eigenvalues of (default mixing * dielectric matrix)
  average eigenvalue GAMMA=   0.4647
  0.4647

 Free energy of the ion-electron system (eV)
  ---------------------------------------------------
  alpha Z        PSCENC =      5454.96200761
  Ewald energy   TEWEN  =   -104104.01822134
  -Hartree energ DENC   =    -46761.14442779
  -exchange      EXHF   =         0.00000000
  -V(xc)+E(xc)   XCENC  =      5124.45742882
  PAW double counting   =    134564.49124858  -140084.48802774
  entropy T*S    EENTRO =        -0.00008595
  eigenvalues    EBANDS =    -17070.71193376
  atomic energy  EATOM  =    162405.62235658
  Solvation  Ediel_sol  =         0.00000000
  ---------------------------------------------------
  free energy    TOTEN  =      -470.82965499 eV

  energy without entropy =     -470.82956904  energy(sigma->0) =     -470.82961202


--------------------------------------------------------------------------------------------------------




----------------------------------------- Iteration    1(   3)  ---------------------------------------


    POTLOK:  cpu time    0.9637: real time    0.9632
    SETDIJ:  cpu time    0.4076: real time    0.4075
     EDDAV:  cpu time   18.2865: real time   18.3076
       DOS:  cpu time    0.0082: real time    0.0082
    CHARGE:  cpu time    4.3054: real time    4.3050
    MIXING:  cpu time    0.0289: real time    0.0289
    --------------------------------------------
      LOOP:  cpu time   24.0011: real time   24.0210

 eigenvalue-minimisations  : 16676
 total energy-change (2. order) : 0.8007492E+02  (-0.4708074E+02)
 number of electron     768.0003747 magnetization       0.0000000
 augmentation part      306.6945360 magnetization       0.0000000

 Broyden mixing:
  rms(total) = 0.26883E+01    rms(broyden)= 0.26817E+01
  rms(prec ) = 0.31532E+01
  weight for this iteration     100.00

 eigenvalues of (default mixing * dielectric matrix)
  average eigenvalue GAMMA=   0.7394
  0.9790  0.4998

 Free energy of the ion-electron system (eV)
  ---------------------------------------------------
  alpha Z        PSCENC =      5454.96200761
  Ewald energy   TEWEN  =   -104104.01822134
  -Hartree energ DENC   =    -48233.73607976
  -exchange      EXHF   =         0.00000000
  -V(xc)+E(xc)   XCENC  =      5153.28726996
  PAW double counting   =    138981.92494406  -144950.91041428
  entropy T*S    EENTRO =        -0.00028888
  eigenvalues    EBANDS =    -15097.88630812
  atomic energy  EATOM  =    162405.62235658
  Solvation  Ediel_sol  =         0.00000000
  ---------------------------------------------------
  free energy    TOTEN  =      -390.75473419 eV

  energy without entropy =     -390.75444531  energy(sigma->0) =     -390.75458975


--------------------------------------------------------------------------------------------------------




----------------------------------------- Iteration    1(   4)  ---------------------------------------


    POTLOK:  cpu time    0.9634: real time    0.9630
    SETDIJ:  cpu time    0.4077: real time    0.4078
     EDDAV:  cpu time   21.6671: real time   21.7076
       DOS:  cpu time    0.0082: real time    0.0082
    CHARGE:  cpu time    4.2959: real time    4.2956
    MIXING:  cpu time    0.0328: real time    0.0328
    --------------------------------------------
      LOOP:  cpu time   27.3757: real time   27.4156

 eigenvalue-minimisations  : 20940
 total energy-change (2. order) :-0.3061387E+01  (-0.7329825E+01)
 number of electron     768.0003833 magnetization       0.0000000
 augmentation part      307.2253861 magnetization       0.0000000

 Broyden mixing:
  rms(total) = 0.12579E+01    rms(broyden)= 0.12576E+01
  rms(prec ) = 0.16021E+01
  weight for this iteration     100.00

 eigenvalues of (default mixing * dielectric matrix)
  average eigenvalue GAMMA=   0.8556
  0.5139  0.9073  1.1456

 Free energy of the ion-electron system (eV)
  ---------------------------------------------------
  alpha Z        PSCENC =      5454.96200761
  Ewald energy   TEWEN  =   -104104.01822134
  -Hartree energ DENC   =    -47939.74424787
  -exchange      EXHF   =         0.00000000
  -V(xc)+E(xc)   XCENC  =      5146.70700228
  PAW double counting   =    140106.16577665  -146092.49123533
  entropy T*S    EENTRO =        -0.00013314
  eigenvalues    EBANDS =    -15371.01942664
  atomic energy  EATOM  =    162405.62235658
  Solvation  Ediel_sol  =         0.00000000
  ---------------------------------------------------
  free energy    TOTEN  =      -393.81612121 eV

  energy without entropy =     -393.81598807  energy(sigma->0) =     -393.81605464


--------------------------------------------------------------------------------------------------------




----------------------------------------- Iteration    1(   5)  ---------------------------------------


    POTLOK:  cpu time    0.9656: real time    0.9653
    SETDIJ:  cpu time    0.4079: real time    0.4079
     EDDAV:  cpu time   21.9211: real time   21.9271
       DOS:  cpu time    0.0088: real time    0.0088
    CHARGE:  cpu time    4.3188: real time    4.3184
    MIXING:  cpu time    0.0369: real time    0.0369
    --------------------------------------------
      LOOP:  cpu time   27.6598: real time   27.6650

 eigenvalue-minimisations  : 21344
 total energy-change (2. order) : 0.1142399E+01  (-0.8870243E+00)
 number of electron     768.0003952 magnetization       0.0000000
 augmentation part      310.3106707 magnetization       0.0000000

 Broyden mixing:
  rms(total) = 0.93754E+00    rms(broyden)= 0.93616E+00
  rms(prec ) = 0.10653E+01
  weight for this iteration     100.00

 eigenvalues of (default mixing * dielectric matrix)
  average eigenvalue GAMMA=   0.9835
  1.8016  0.9772  0.5777  0.5777

 Free energy of the ion-electron system (eV)
  ---------------------------------------------------
  alpha Z        PSCENC =      5454.96200761
  Ewald energy   TEWEN  =   -104104.01822134
  -Hartree energ DENC   =    -47635.48794801
  -exchange      EXHF   =         0.00000000
  -V(xc)+E(xc)   XCENC  =      5138.72243446
  PAW double counting   =    140667.19457257  -146694.35278707
  entropy T*S    EENTRO =        -0.00013316
  eigenvalues    EBANDS =    -15625.31600368
  atomic energy  EATOM  =    162405.62235658
  Solvation  Ediel_sol  =         0.00000000
  ---------------------------------------------------
  free energy    TOTEN  =      -392.67372205 eV

  energy without entropy =     -392.67358889  energy(sigma->0) =     -392.67365547


--------------------------------------------------------------------------------------------------------




----------------------------------------- Iteration    1(   6)  ---------------------------------------


    POTLOK:  cpu time    0.9634: real time    0.9633
    SETDIJ:  cpu time    0.4081: real time    0.4080
     EDDAV:  cpu time   19.1276: real time   19.1359
       DOS:  cpu time    0.0081: real time    0.0081
    CHARGE:  cpu time    4.2967: real time    4.2963
    MIXING:  cpu time    0.0360: real time    0.0360
    --------------------------------------------
      LOOP:  cpu time   24.8405: real time   24.8482

 eigenvalue-minimisations  : 17952
 total energy-change (2. order) :-0.6495655E-01  (-0.2832003E+00)
 number of electron     768.0003939 magnetization       0.0000000
 augmentation part      309.5833539 magnetization       0.0000000

 Broyden mixing:
  rms(total) = 0.51559E+00    rms(broyden)= 0.51496E+00
  rms(prec ) = 0.59811E+00
  weight for this iteration     100.00

 eigenvalues of (default mixing * dielectric matrix)
  average eigenvalue GAMMA=   1.0677
  2.0475  1.2273  0.7625  0.7625  0.5390

 Free energy of the ion-electron system (eV)
  ---------------------------------------------------
  alpha Z        PSCENC =      5454.96200761
  Ewald energy   TEWEN  =   -104104.01822134
  -Hartree energ DENC   =    -47622.95353868
  -exchange      EXHF   =         0.00000000
  -V(xc)+E(xc)   XCENC  =      5137.50106941
  PAW double counting   =    141252.98269717  -147313.54493504
  entropy T*S    EENTRO =        -0.00020168
  eigenvalues    EBANDS =    -15603.28991263
  atomic energy  EATOM  =    162405.62235658
  Solvation  Ediel_sol  =         0.00000000
  ---------------------------------------------------
  free energy    TOTEN  =      -392.73867860 eV

  energy without entropy =     -392.73847692  energy(sigma->0) =     -392.73857776


--------------------------------------------------------------------------------------------------------




----------------------------------------- Iteration    1(   7)  ---------------------------------------


    POTLOK:  cpu time    0.9559: real time    0.9556
    SETDIJ:  cpu time    0.4077: real time    0.4078
     EDDAV:  cpu time   21.7188: real time   21.7461
       DOS:  cpu time    0.0084: real time    0.0084
    CHARGE:  cpu time    4.3450: real time    4.3446
    MIXING:  cpu time    0.0437: real time    0.0437
    --------------------------------------------
      LOOP:  cpu time   27.4803: real time   27.5069

 eigenvalue-minimisations  : 21248
 total energy-change (2. order) :-0.9636656E-02  (-0.9564884E-01)
 number of electron     768.0003930 magnetization       0.0000000
 augmentation part      309.0865443 magnetization       0.0000000

 Broyden mixing:
  rms(total) = 0.18804E+00    rms(broyden)= 0.18734E+00
  rms(prec ) = 0.19205E+00
  weight for this iteration     100.00

 eigenvalues of (default mixing * dielectric matrix)
  average eigenvalue GAMMA=   1.0522
  2.0173  1.5866  0.9036  0.6488  0.5786  0.5786

 Free energy of the ion-electron system (eV)
  ---------------------------------------------------
  alpha Z        PSCENC =      5454.96200761
  Ewald energy   TEWEN  =   -104104.01822134
  -Hartree energ DENC   =    -47651.64518329
  -exchange      EXHF   =         0.00000000
  -V(xc)+E(xc)   XCENC  =      5137.23546755
  PAW double counting   =    141482.09588392  -147544.35220597
  entropy T*S    EENTRO =        -0.00016719
  eigenvalues    EBANDS =    -15572.64825310
  atomic energy  EATOM  =    162405.62235658
  Solvation  Ediel_sol  =         0.00000000
  ---------------------------------------------------
  free energy    TOTEN  =      -392.74831525 eV

  energy without entropy =     -392.74814806  energy(sigma->0) =     -392.74823166


--------------------------------------------------------------------------------------------------------




----------------------------------------- Iteration    1(   8)  ---------------------------------------


    POTLOK:  cpu time    0.9632: real time    0.9628
    SETDIJ:  cpu time    0.4074: real time    0.4073
     EDDAV:  cpu time   21.4963: real time   21.5161
       DOS:  cpu time    0.0082: real time    0.0082
    CHARGE:  cpu time    4.3554: real time    4.3549
    MIXING:  cpu time    0.0438: real time    0.0437
    --------------------------------------------
      LOOP:  cpu time   27.2750: real time   27.2937

 eigenvalue-minimisations  : 20792
 total energy-change (2. order) :-0.6323043E-01  (-0.4700270E-01)
 number of electron     768.0003931 magnetization       0.0000000
 augmentation part      309.0264912 magnetization       0.0000000

 Broyden mixing:
  rms(total) = 0.38472E+00    rms(broyden)= 0.38382E+00
  rms(prec ) = 0.38619E+00
  weight for this iteration     100.00

 eigenvalues of (default mixing * dielectric matrix)
  average eigenvalue GAMMA=   0.9802
  1.9585  1.5454  0.7849  0.7849  0.5498  0.6369  0.6012

 Free energy of the ion-electron system (eV)
  ---------------------------------------------------
  alpha Z        PSCENC =      5454.96200761
  Ewald energy   TEWEN  =   -104104.01822134
  -Hartree energ DENC   =    -47666.49806129
  -exchange      EXHF   =         0.00000000
  -V(xc)+E(xc)   XCENC  =      5137.54454322
  PAW double counting   =    141492.15816335  -147551.49496210
  entropy T*S    EENTRO =        -0.00026630
  eigenvalues    EBANDS =    -15561.08710540
  atomic energy  EATOM  =    162405.62235658
  Solvation  Ediel_sol  =         0.00000000
  ---------------------------------------------------
  free energy    TOTEN  =      -392.81154568 eV

  energy without entropy =     -392.81127938  energy(sigma->0) =     -392.81141253


--------------------------------------------------------------------------------------------------------




----------------------------------------- Iteration    1(   9)  ---------------------------------------


    POTLOK:  cpu time    0.9517: real time    0.9516
    SETDIJ:  cpu time    0.4078: real time    0.4076
     EDDAV:  cpu time   20.0020: real time   20.0251
       DOS:  cpu time    0.0081: real time    0.0080
    CHARGE:  cpu time    4.3442: real time    4.3430
    MIXING:  cpu time    0.0537: real time    0.0537
    --------------------------------------------
      LOOP:  cpu time   25.7680: real time   25.7897

 eigenvalue-minimisations  : 19208
 total energy-change (2. order) : 0.7259255E-01  (-0.9314497E-01)
 number of electron     768.0003926 magnetization       0.0000000
 augmentation part      308.9870147 magnetization       0.0000000

 Broyden mixing:
  rms(total) = 0.16757E+00    rms(broyden)= 0.16529E+00
  rms(prec ) = 0.17650E+00
  weight for this iteration     100.00

 eigenvalues of (default mixing * dielectric matrix)
  average eigenvalue GAMMA=   0.9964
  1.8233  1.8233  0.9075  0.8666  0.7134  0.7134  0.5620  0.5620

 Free energy of the ion-electron system (eV)
  ---------------------------------------------------
  alpha Z        PSCENC =      5454.96200761
  Ewald energy   TEWEN  =   -104104.01822134
  -Hartree energ DENC   =    -47660.93951535
  -exchange      EXHF   =         0.00000000
  -V(xc)+E(xc)   XCENC  =      5137.78560055
  PAW double counting   =    141452.82041097  -147513.88643729
  entropy T*S    EENTRO =        -0.00017437
  eigenvalues    EBANDS =    -15565.08498048
  atomic energy  EATOM  =    162405.62235658
  Solvation  Ediel_sol  =         0.00000000
  ---------------------------------------------------
  free energy    TOTEN  =      -392.73895313 eV

  energy without entropy =     -392.73877876  energy(sigma->0) =     -392.73886594


--------------------------------------------------------------------------------------------------------




----------------------------------------- Iteration    1(  10)  ---------------------------------------


    POTLOK:  cpu time    0.9618: real time    0.9613
    SETDIJ:  cpu time    0.4076: real time    0.4074
     EDDAV:  cpu time   22.3316: real time   22.3665
       DOS:  cpu time    0.0080: real time    0.0080
    CHARGE:  cpu time    4.3307: real time    4.3301
    MIXING:  cpu time    0.0524: real time    0.0524
    --------------------------------------------
      LOOP:  cpu time   28.0928: real time   28.1265

 eigenvalue-minimisations  : 21904
 total energy-change (2. order) : 0.1027387E-01  (-0.1887841E-02)
 number of electron     768.0003927 magnetization       0.0000000
 augmentation part      309.0094598 magnetization       0.0000000

 Broyden mixing:
  rms(total) = 0.17609E+00    rms(broyden)= 0.17590E+00
  rms(prec ) = 0.17999E+00
  weight for this iteration     100.00

 eigenvalues of (default mixing * dielectric matrix)
  average eigenvalue GAMMA=   0.9975
  1.2352  1.8808  1.8808  0.6908  0.6908  0.7588  0.7588  0.5638  0.5178

 Free energy of the ion-electron system (eV)
  ---------------------------------------------------
  alpha Z        PSCENC =      5454.96200761
  Ewald energy   TEWEN  =   -104104.01822134
  -Hartree energ DENC   =    -47661.48201121
  -exchange      EXHF   =         0.00000000
  -V(xc)+E(xc)   XCENC  =      5138.03649115
  PAW double counting   =    141438.77977036  -147499.92776757
  entropy T*S    EENTRO =        -0.00013316
  eigenvalues    EBANDS =    -15564.70117167
  atomic energy  EATOM  =    162405.62235658
  Solvation  Ediel_sol  =         0.00000000
  ---------------------------------------------------
  free energy    TOTEN  =      -392.72867926 eV

  energy without entropy =     -392.72854610  energy(sigma->0) =     -392.72861268


--------------------------------------------------------------------------------------------------------




----------------------------------------- Iteration    1(  11)  ---------------------------------------


    POTLOK:  cpu time    0.9526: real time    0.9524
    SETDIJ:  cpu time    0.4073: real time    0.4071
     EDDAV:  cpu time   21.6048: real time   21.6322
       DOS:  cpu time    0.0086: real time    0.0086
    CHARGE:  cpu time    4.3412: real time    4.3407
    MIXING:  cpu time    0.0641: real time    0.0640
    --------------------------------------------
      LOOP:  cpu time   27.3793: real time   27.4057

 eigenvalue-minimisations  : 21120
 total energy-change (2. order) : 0.8750179E-01  (-0.6342861E-02)
 number of electron     768.0003927 magnetization       0.0000000
 augmentation part      309.0507353 magnetization       0.0000000

 Broyden mixing:
  rms(total) = 0.33441E+00    rms(broyden)= 0.33418E+00
  rms(prec ) = 0.33527E+00
  weight for this iteration     100.00

 eigenvalues of (default mixing * dielectric matrix)
  average eigenvalue GAMMA=   1.0823
  1.8415  1.9800  1.9800  0.9381  0.9381  0.7674  0.7674  0.6159  0.5518  0.4433

 Free energy of the ion-electron system (eV)
  ---------------------------------------------------
  alpha Z        PSCENC =      5454.96200761
  Ewald energy   TEWEN  =   -104104.01822134
  -Hartree energ DENC   =    -47656.15989804
  -exchange      EXHF   =         0.00000000
  -V(xc)+E(xc)   XCENC  =      5138.62981698
  PAW double counting   =    141386.78054027  -147448.78350371
  entropy T*S    EENTRO =        -0.00031779
  eigenvalues    EBANDS =    -15569.67395802
  atomic energy  EATOM  =    162405.62235658
  Solvation  Ediel_sol  =         0.00000000
  ---------------------------------------------------
  free energy    TOTEN  =      -392.64117747 eV

  energy without entropy =     -392.64085968  energy(sigma->0) =     -392.64101857


--------------------------------------------------------------------------------------------------------




----------------------------------------- Iteration    1(  12)  ---------------------------------------


    POTLOK:  cpu time    0.9649: real time    0.9644
    SETDIJ:  cpu time    0.4074: real time    0.4075
     EDDAV:  cpu time   21.7424: real time   21.7626
       DOS:  cpu time    0.0082: real time    0.0082
    CHARGE:  cpu time    4.3274: real time    4.3270
    MIXING:  cpu time    0.0611: real time    0.0610
    --------------------------------------------
      LOOP:  cpu time   27.5120: real time   27.5314

 eigenvalue-minimisations  : 21280
 total energy-change (2. order) : 0.2728041E+00  (-0.1742063E+00)
 number of electron     768.0003916 magnetization       0.0000000
 augmentation part      309.1050150 magnetization       0.0000000

 Broyden mixing:
  rms(total) = 0.62008E+00    rms(broyden)= 0.61879E+00
  rms(prec ) = 0.63590E+00
  weight for this iteration     100.00

 eigenvalues of (default mixing * dielectric matrix)
  average eigenvalue GAMMA=   0.9914
  1.9416  1.9266  1.9266  0.9609  0.9609  0.7370  0.7370  0.6084  0.5498  0.4512
  0.1050

 Free energy of the ion-electron system (eV)
  ---------------------------------------------------
  alpha Z        PSCENC =      5454.96200761
  Ewald energy   TEWEN  =   -104104.01822134
  -Hartree energ DENC   =    -47638.30146875
  -exchange      EXHF   =         0.00000000
  -V(xc)+E(xc)   XCENC  =      5139.62992064
  PAW double counting   =    141296.42071316  -147361.27435732
  entropy T*S    EENTRO =        -0.00008824
  eigenvalues    EBANDS =    -15585.40923566
  atomic energy  EATOM  =    162405.62235658
  Solvation  Ediel_sol  =         0.00000000
  ---------------------------------------------------
  free energy    TOTEN  =      -392.36837333 eV

  energy without entropy =     -392.36828509  energy(sigma->0) =     -392.36832921


--------------------------------------------------------------------------------------------------------




----------------------------------------- Iteration    1(  13)  ---------------------------------------


    POTLOK:  cpu time    0.9541: real time    0.9539
    SETDIJ:  cpu time    0.4074: real time    0.4073
     EDDAV:  cpu time   22.3768: real time   22.4191
       DOS:  cpu time    0.0082: real time    0.0082
    CHARGE:  cpu time    4.3451: real time    4.3440
    MIXING:  cpu time    0.0750: real time    0.0749
    --------------------------------------------
      LOOP:  cpu time   28.1673: real time   28.2080

 eigenvalue-minimisations  : 21960
 total energy-change (2. order) : 0.7143107E-01  (-0.9021591E-02)
 number of electron     768.0003901 magnetization       0.0000000
 augmentation part      309.0880274 magnetization       0.0000000

 Broyden mixing:
  rms(total) = 0.60865E+00    rms(broyden)= 0.60805E+00
  rms(prec ) = 0.63213E+00
  weight for this iteration     100.00

 eigenvalues of (default mixing * dielectric matrix)
  average eigenvalue GAMMA=   0.9183
  1.9528  1.9316  1.9316  0.9551  0.9551  0.7357  0.7357  0.6101  0.5487  0.4628
  0.1002  0.1002

 Free energy of the ion-electron system (eV)
  ---------------------------------------------------
  alpha Z        PSCENC =      5454.96200761
  Ewald energy   TEWEN  =   -104104.01822134
  -Hartree energ DENC   =    -47632.62574196
  -exchange      EXHF   =         0.00000000
  -V(xc)+E(xc)   XCENC  =      5139.95815969
  PAW double counting   =    141275.81981076  -147342.35355130
  entropy T*S    EENTRO =        -0.00015398
  eigenvalues    EBANDS =    -15589.66160830
  atomic energy  EATOM  =    162405.62235658
  Solvation  Ediel_sol  =         0.00000000
  ---------------------------------------------------
  free energy    TOTEN  =      -392.29694226 eV

  energy without entropy =     -392.29678828  energy(sigma->0) =     -392.29686527


--------------------------------------------------------------------------------------------------------




----------------------------------------- Iteration    1(  14)  ---------------------------------------


    POTLOK:  cpu time    0.9618: real time    0.9613
    SETDIJ:  cpu time    0.4082: real time    0.4081
     EDDAV:  cpu time   19.2971: real time   19.3033
       DOS:  cpu time    0.0083: real time    0.0083
    CHARGE:  cpu time    4.3288: real time    4.3277
    MIXING:  cpu time    0.0729: real time    0.0729
    --------------------------------------------
      LOOP:  cpu time   25.0778: real time   25.0822

 eigenvalue-minimisations  : 18240
 total energy-change (2. order) : 0.1562803E-01  (-0.1057124E-02)
 number of electron     768.0003901 magnetization      -0.0000000
 augmentation part      309.1032375 magnetization      -0.0000000

 Broyden mixing:
  rms(total) = 0.63608E+00    rms(broyden)= 0.63605E+00
  rms(prec ) = 0.65929E+00
  weight for this iteration     100.00

 eigenvalues of (default mixing * dielectric matrix)
  average eigenvalue GAMMA=   0.9647
  2.1296  2.1296  1.1460  1.1460  0.9657  0.8996  0.8996  0.6849  0.6849  0.5578
  0.5578  0.3699  0.3699

 Free energy of the ion-electron system (eV)
  ---------------------------------------------------
  alpha Z        PSCENC =      5454.96200761
  Ewald energy   TEWEN  =   -104104.01822134
  -Hartree energ DENC   =    -47631.04255997
  -exchange      EXHF   =         0.00000000
  -V(xc)+E(xc)   XCENC  =      5139.99380069
  PAW double counting   =    141269.74820062  -147336.53018062
  entropy T*S    EENTRO =        -0.00015391
  eigenvalues    EBANDS =    -15591.01656388
  atomic energy  EATOM  =    162405.62235658
  Solvation  Ediel_sol  =         0.00000000
  ---------------------------------------------------
  free energy    TOTEN  =      -392.28131422 eV

  energy without entropy =     -392.28116032  energy(sigma->0) =     -392.28123727


--------------------------------------------------------------------------------------------------------




----------------------------------------- Iteration    1(  15)  ---------------------------------------


    POTLOK:  cpu time    0.9512: real time    0.9508
    SETDIJ:  cpu time    0.4071: real time    0.4070
     EDDAV:  cpu time   21.1600: real time   21.1917
       DOS:  cpu time    0.0093: real time    0.0093
    CHARGE:  cpu time    4.3541: real time    4.3531
    MIXING:  cpu time    0.0784: real time    0.0784
    --------------------------------------------
      LOOP:  cpu time   26.9608: real time   26.9909

 eigenvalue-minimisations  : 20368
 total energy-change (2. order) :-0.3539054E+00  (-0.6705960E-01)
 number of electron     768.0003927 magnetization      -0.0000000
 augmentation part      309.0690203 magnetization      -0.0000000

 Broyden mixing:
  rms(total) = 0.35649E+00    rms(broyden)= 0.35227E+00
  rms(prec ) = 0.35982E+00
  weight for this iteration     100.00

 eigenvalues of (default mixing * dielectric matrix)
  average eigenvalue GAMMA=   0.9203
  2.1506  2.1506  1.2063  1.2063  1.0174  0.8542  0.8542  0.6798  0.6798  0.5604
  0.5604  0.3871  0.3871  0.1903

 Free energy of the ion-electron system (eV)
  ---------------------------------------------------
  alpha Z        PSCENC =      5454.96200761
  Ewald energy   TEWEN  =   -104104.01822134
  -Hartree energ DENC   =    -47663.52335156
  -exchange      EXHF   =         0.00000000
  -V(xc)+E(xc)   XCENC  =      5138.95786994
  PAW double counting   =    141377.51670826  -147436.83809559
  entropy T*S    EENTRO =        -0.00031916
  eigenvalues    EBANDS =    -15565.31417434
  atomic energy  EATOM  =    162405.62235658
  Solvation  Ediel_sol  =         0.00000000
  ---------------------------------------------------
  free energy    TOTEN  =      -392.63521961 eV

  energy without entropy =     -392.63490046  energy(sigma->0) =     -392.63506003


--------------------------------------------------------------------------------------------------------




----------------------------------------- Iteration    1(  16)  ---------------------------------------


    POTLOK:  cpu time    0.9531: real time    0.9526
    SETDIJ:  cpu time    0.4095: real time    0.4093
     EDDAV:  cpu time   22.2188: real time   22.2383
       DOS:  cpu time    0.0081: real time    0.0082
    CHARGE:  cpu time    4.3327: real time    4.3316
    MIXING:  cpu time    0.0943: real time    0.0942
    --------------------------------------------
      LOOP:  cpu time   28.0171: real time   28.0349

 eigenvalue-minimisations  : 21984
 total energy-change (2. order) :-0.8882804E-01  (-0.1707426E-01)
 number of electron     768.0003927 magnetization      -0.0000000
 augmentation part      309.0077461 magnetization      -0.0000000

 Broyden mixing:
  rms(total) = 0.23366E+00    rms(broyden)= 0.23286E+00
  rms(prec ) = 0.23923E+00
  weight for this iteration     100.00

 eigenvalues of (default mixing * dielectric matrix)
  average eigenvalue GAMMA=   0.9477
  2.3198  2.3198  1.2697  1.2697  1.2417  0.7880  0.7880  0.6598  0.6598  0.5538
  0.5538  0.5153  0.5153  0.3805  0.3805

 Free energy of the ion-electron system (eV)
  ---------------------------------------------------
  alpha Z        PSCENC =      5454.96200761
  Ewald energy   TEWEN  =   -104104.01822134
  -Hartree energ DENC   =    -47671.01685433
  -exchange      EXHF   =         0.00000000
  -V(xc)+E(xc)   XCENC  =      5138.64231852
  PAW double counting   =    141416.98382934  -147474.48286859
  entropy T*S    EENTRO =        -0.00013314
  eigenvalues    EBANDS =    -15559.41648229
  atomic energy  EATOM  =    162405.62235658
  Solvation  Ediel_sol  =         0.00000000
  ---------------------------------------------------
  free energy    TOTEN  =      -392.72404766 eV

  energy without entropy =     -392.72391451  energy(sigma->0) =     -392.72398108


--------------------------------------------------------------------------------------------------------




----------------------------------------- Iteration    1(  17)  ---------------------------------------


    POTLOK:  cpu time    0.9626: real time    0.9622
    SETDIJ:  cpu time    0.4075: real time    0.4074
     EDDAV:  cpu time   21.9347: real time   21.9394
       DOS:  cpu time    0.0024: real time    0.0024
    CHARGE:  cpu time    4.3523: real time    4.3513
    MIXING:  cpu time    0.0896: real time    0.0896
    --------------------------------------------
      LOOP:  cpu time   27.7497: real time   27.7528

 eigenvalue-minimisations  : 21320
 total energy-change (2. order) :-0.1389219E+00  (-0.8454659E-01)
 number of electron     768.0003931 magnetization      -0.0000000
 augmentation part      308.9857080 magnetization      -0.0000000

 Broyden mixing:
  rms(total) = 0.43535E+00    rms(broyden)= 0.43289E+00
  rms(prec ) = 0.44475E+00
  weight for this iteration     100.00

 eigenvalues of (default mixing * dielectric matrix)
  average eigenvalue GAMMA=   0.9560
  2.4021  2.4021  1.3124  1.3124  1.2301  0.7264  0.7264  0.8678  0.8678  0.6711
  0.6711  0.5257  0.5257  0.3703  0.3703  0.3148

 Free energy of the ion-electron system (eV)
  ---------------------------------------------------
  alpha Z        PSCENC =      5454.96200761
  Ewald energy   TEWEN  =   -104104.01822134
  -Hartree energ DENC   =    -47684.15127064
  -exchange      EXHF   =         0.00000000
  -V(xc)+E(xc)   XCENC  =      5138.11445499
  PAW double counting   =    141486.70157156  -147541.34819408
  entropy T*S    EENTRO =        -0.00000000
  eigenvalues    EBANDS =    -15548.74567422
  atomic energy  EATOM  =    162405.62235658
  Solvation  Ediel_sol  =         0.00000000
  ---------------------------------------------------
  free energy    TOTEN  =      -392.86296955 eV

  energy without entropy =     -392.86296955  energy(sigma->0) =     -392.86296955


--------------------------------------------------------------------------------------------------------




----------------------------------------- Iteration    1(  18)  ---------------------------------------


    POTLOK:  cpu time    0.9512: real time    0.9507
    SETDIJ:  cpu time    0.4075: real time    0.4073
     EDDAV:  cpu time   22.0397: real time   22.0556
       DOS:  cpu time    0.0024: real time    0.0024
    CHARGE:  cpu time    4.3371: real time    4.3359
    MIXING:  cpu time    0.1072: real time    0.1071
    --------------------------------------------
      LOOP:  cpu time   27.8458: real time   27.8598

 eigenvalue-minimisations  : 21736
 total energy-change (2. order) :-0.6002194E-01  (-0.5208331E-02)
 number of electron     768.0003931 magnetization      -0.0000000
 augmentation part      308.9401854 magnetization      -0.0000000

 Broyden mixing:
  rms(total) = 0.48070E+00    rms(broyden)= 0.48031E+00
  rms(prec ) = 0.49063E+00
  weight for this iteration     100.00

 eigenvalues of (default mixing * dielectric matrix)
  average eigenvalue GAMMA=   0.9222
  2.2978  2.2978  1.2964  1.0754  1.0754  1.1195  0.8411  0.8411  0.6481  0.6481
  0.7004  0.7004  0.5306  0.5306  0.3737  0.3737  0.3281

 Free energy of the ion-electron system (eV)
  ---------------------------------------------------
  alpha Z        PSCENC =      5454.96200761
  Ewald energy   TEWEN  =   -104104.01822134
  -Hartree energ DENC   =    -47690.00794575
  -exchange      EXHF   =         0.00000000
  -V(xc)+E(xc)   XCENC  =      5138.08528424
  PAW double counting   =    141493.82478917  -147547.58758847
  entropy T*S    EENTRO =        -0.00000000
  eigenvalues    EBANDS =    -15543.80367352
  atomic energy  EATOM  =    162405.62235658
  Solvation  Ediel_sol  =         0.00000000
  ---------------------------------------------------
  free energy    TOTEN  =      -392.92299149 eV

  energy without entropy =     -392.92299149  energy(sigma->0) =     -392.92299149


--------------------------------------------------------------------------------------------------------




----------------------------------------- Iteration    1(  19)  ---------------------------------------


    POTLOK:  cpu time    0.9611: real time    0.9606
    SETDIJ:  cpu time    0.4079: real time    0.4077
     EDDAV:  cpu time   21.2366: real time   21.2478
       DOS:  cpu time    0.0088: real time    0.0088
    CHARGE:  cpu time    4.3600: real time    4.3589
    MIXING:  cpu time    0.1023: real time    0.1023
    --------------------------------------------
      LOOP:  cpu time   27.0774: real time   27.0868

 eigenvalue-minimisations  : 20424
 total energy-change (2. order) : 0.1358953E+00  (-0.1794018E-01)
 number of electron     768.0003929 magnetization       0.0000000
 augmentation part      308.9572984 magnetization       0.0000000

 Broyden mixing:
  rms(total) = 0.27768E+00    rms(broyden)= 0.27624E+00
  rms(prec ) = 0.28991E+00
  weight for this iteration     100.00

 eigenvalues of (default mixing * dielectric matrix)
  average eigenvalue GAMMA=   0.9628
  2.4547  2.3108  2.3108  1.0766  1.0766  1.0363  0.7281  0.7281  0.8136  0.8136
  0.7082  0.6474  0.5566  0.4930  0.4930  0.3728  0.3728  0.3370

 Free energy of the ion-electron system (eV)
  ---------------------------------------------------
  alpha Z        PSCENC =      5454.96200761
  Ewald energy   TEWEN  =   -104104.01822134
  -Hartree energ DENC   =    -47680.85401311
  -exchange      EXHF   =         0.00000000
  -V(xc)+E(xc)   XCENC  =      5138.36322842
  PAW double counting   =    141457.56383773  -147513.16496917
  entropy T*S    EENTRO =        -0.00016756
  eigenvalues    EBANDS =    -15551.26115534
  atomic energy  EATOM  =    162405.62235658
  Solvation  Ediel_sol  =         0.00000000
  ---------------------------------------------------
  free energy    TOTEN  =      -392.78709619 eV

  energy without entropy =     -392.78692863  energy(sigma->0) =     -392.78701241


--------------------------------------------------------------------------------------------------------




----------------------------------------- Iteration    1(  20)  ---------------------------------------


    POTLOK:  cpu time    0.9520: real time    0.9515
    SETDIJ:  cpu time    0.4074: real time    0.4073
     EDDAV:  cpu time   22.1550: real time   22.1693
       DOS:  cpu time    0.0084: real time    0.0084
    CHARGE:  cpu time    4.3357: real time    4.3344
    MIXING:  cpu time    0.1214: real time    0.1213
    --------------------------------------------
      LOOP:  cpu time   27.9806: real time   27.9928

 eigenvalue-minimisations  : 21856
 total energy-change (2. order) : 0.6622710E-01  (-0.4905694E-02)
 number of electron     768.0003926 magnetization       0.0000000
 augmentation part      308.9661081 magnetization       0.0000000

 Broyden mixing:
  rms(total) = 0.17922E+00    rms(broyden)= 0.17737E+00
  rms(prec ) = 0.18204E+00
  weight for this iteration     100.00

 eigenvalues of (default mixing * dielectric matrix)
  average eigenvalue GAMMA=   0.9996
  3.2866  2.3005  2.3005  1.0841  1.0841  1.2191  0.8805  0.8805  0.6716  0.6716
  0.5993  0.5993  0.6311  0.6311  0.5357  0.5357  0.3692  0.3692  0.3432

 Free energy of the ion-electron system (eV)
  ---------------------------------------------------
  alpha Z        PSCENC =      5454.96200761
  Ewald energy   TEWEN  =   -104104.01822134
  -Hartree energ DENC   =    -47673.35394533
  -exchange      EXHF   =         0.00000000
  -V(xc)+E(xc)   XCENC  =      5138.65277132
  PAW double counting   =    141424.06542488  -147481.56772533
  entropy T*S    EENTRO =        -0.00014553
  eigenvalues    EBANDS =    -15557.08339193
  atomic energy  EATOM  =    162405.62235658
  Solvation  Ediel_sol  =         0.00000000
  ---------------------------------------------------
  free energy    TOTEN  =      -392.72086908 eV

  energy without entropy =     -392.72072356  energy(sigma->0) =     -392.72079632


--------------------------------------------------------------------------------------------------------




----------------------------------------- Iteration    1(  21)  ---------------------------------------


    POTLOK:  cpu time    0.9614: real time    0.9609
    SETDIJ:  cpu time    0.4078: real time    0.4077
     EDDAV:  cpu time   21.9395: real time   21.9706
       DOS:  cpu time    0.0081: real time    0.0081
    CHARGE:  cpu time    4.3325: real time    4.3316
    MIXING:  cpu time    0.1145: real time    0.1144
    --------------------------------------------
      LOOP:  cpu time   27.7647: real time   27.7941

 eigenvalue-minimisations  : 21440
 total energy-change (2. order) : 0.1179688E+00  (-0.8965531E-02)
 number of electron     768.0003927 magnetization       0.0000000
 augmentation part      309.0907423 magnetization       0.0000000

 Broyden mixing:
  rms(total) = 0.37802E+00    rms(broyden)= 0.37758E+00
  rms(prec ) = 0.38089E+00
  weight for this iteration     100.00

 eigenvalues of (default mixing * dielectric matrix)
  average eigenvalue GAMMA=   0.9741
  3.1680  2.2768  2.2768  1.0895  1.0895  1.3566  0.9100  0.9100  0.7210  0.7210
  0.5882  0.5882  0.6137  0.6137  0.5525  0.4665  0.4665  0.3686  0.3686  0.3370

 Free energy of the ion-electron system (eV)
  ---------------------------------------------------
  alpha Z        PSCENC =      5454.96200761
[...]
   0.128E-11 0.417E-12 0.161E-10   -.197E-12 0.127E-12 -.114E-12   -.238E-21 -.116E-21 -.172E-21   -.326E-11 -.308E-11 -.367E-11
   0.118E-11 0.560E-12 0.115E-11   -.169E-12 0.113E-12 -.568E-13   0.342E-21 0.199E-22 0.212E-21   -.263E-11 -.301E-11 0.274E-11
   0.114E-11 -.140E-12 0.170E-11   -.226E-12 0.160E-12 -.114E-12   -.179E-21 0.662E-22 0.662E-22   -.352E-11 -.547E-12 -.516E-11
   0.118E-11 -.902E-11 0.968E-11   0.162E-14 0.188E-12 -.568E-13   0.926E-22 0.761E-22 -.225E-21   -.311E-11 -.909E-12 0.202E-11
   0.165E-11 0.564E-12 -.456E-11   -.882E-14 0.113E-12 -.114E-12   -.678E-22 -.139E-21 0.993E-22   0.176E-11 -.103E-11 -.445E-11
   0.172E-11 0.442E-12 -.538E-10   -.179E-12 0.113E-12 -.114E-12   0.199E-22 0.490E-21 0.291E-21   0.944E-12 0.185E-11 0.615E-11
   0.172E-11 -.954E-11 -.822E-11   -.222E-12 0.160E-12 -.114E-12   -.662E-22 -.463E-22 -.243E-21   0.225E-11 -.316E-12 -.250E-11
   0.168E-11 0.128E-10 -.767E-11   -.279E-12 0.174E-12 -.114E-12   -.212E-21 0.141E-21 0.142E-21   0.100E-11 -.301E-11 0.418E-11
   0.595E-12 0.102E-11 0.676E-12   -.171E-12 0.171E-12 -.114E-12   -.159E-21 -.225E-21 0.993E-22   0.234E-11 -.279E-11 -.322E-11
   0.683E-12 0.941E-12 0.159E-11   -.171E-12 0.227E-12 -.114E-12   0.263E-21 0.165E-21 0.596E-22   0.467E-12 -.175E-11 0.278E-11
   0.710E-12 0.166E-11 0.104E-11   -.412E-12 0.199E-12 -.568E-13   0.304E-21 -.179E-21 -.235E-21   0.308E-11 0.123E-12 -.341E-11
   0.536E-12 0.174E-11 0.132E-11   -.526E-12 0.114E-12 -.568E-13   0.546E-22 -.926E-22 0.344E-21   0.465E-11 -.920E-12 0.468E-11
   0.304E-12 0.434E-10 0.196E-10   -.341E-12 0.156E-12 -.114E-12   -.212E-21 -.596E-22 -.104E-21   0.152E-11 -.944E-12 -.515E-11
   0.204E-12 0.137E-11 0.303E-11   -.171E-12 0.171E-12 -.568E-13   0.179E-21 0.926E-22 0.159E-21   0.330E-11 -.320E-13 0.346E-11
   0.162E-12 -.709E-11 0.118E-10   -.199E-12 0.128E-12 -.114E-12   -.324E-21 -.119E-21 -.205E-21   0.737E-12 0.200E-11 -.454E-11
   0.336E-12 0.191E-11 -.221E-10   -.171E-12 0.114E-12 -.568E-13   0.169E-21 0.265E-21 0.298E-22   -.249E-12 0.165E-11 0.426E-11
   0.159E-12 -.192E-11 0.102E-11   0.129E-12 0.320E-13 -.142E-13   0.910E-23 -.116E-22 -.105E-22   -.112E-11 -.909E-12 -.141E-11
   0.835E-13 0.391E-11 0.234E-11   0.186E-12 0.604E-13 0.000E+00   0.993E-23 0.556E-23 0.124E-22   -.624E-12 -.439E-12 0.166E-11
   0.794E-13 0.435E-11 0.249E-11   0.106E-12 0.826E-13 -.142E-13   -.202E-23 -.211E-22 -.141E-22   -.176E-11 0.103E-11 -.995E-12
   0.984E-13 -.793E-12 0.230E-11   0.106E-12 0.542E-13 0.000E+00   -.579E-23 0.465E-23 0.165E-23   -.138E-11 0.565E-12 0.114E-11
   0.352E-12 0.494E-11 -.138E-11   0.119E-12 0.497E-13 -.142E-13   -.827E-24 -.848E-23 0.496E-23   0.123E-11 -.707E-12 -.129E-11
   0.427E-12 0.159E-10 -.822E-11   0.119E-12 0.639E-13 0.000E+00   0.662E-23 0.455E-23 -.517E-23   0.642E-12 -.658E-12 0.866E-12
   0.418E-12 -.815E-11 0.117E-10   0.157E-12 0.853E-13 -.142E-13   -.124E-22 0.132E-22 0.290E-23   0.157E-11 0.101E-11 -.238E-11
   0.397E-12 0.172E-11 -.459E-11   0.129E-12 0.568E-13 0.000E+00   0.331E-23 0.496E-23 0.372E-23   0.111E-11 0.895E-12 0.229E-11
   0.291E-12 0.299E-12 0.167E-12   0.613E-13 0.832E-13 -.142E-13   -.362E-23 -.729E-23 -.827E-23   0.626E-12 -.570E-12 -.193E-11
   0.164E-12 0.349E-12 0.332E-12   0.613E-13 0.547E-13 0.000E+00   -.827E-24 0.116E-22 0.595E-23   0.545E-12 0.431E-12 0.126E-11
   0.127E-12 0.198E-12 0.108E-12   0.711E-13 0.622E-13 -.142E-13   0.132E-22 -.148E-23 -.496E-23   0.609E-12 0.107E-11 -.179E-11
   0.197E-12 -.110E-12 -.146E-12   0.711E-13 0.622E-13 0.000E+00   0.331E-23 -.993E-23 -.331E-23   0.927E-12 0.840E-13 0.573E-12
   -.193E-13 0.339E-12 0.189E-10   0.728E-13 0.858E-13 -.142E-13   -.207E-24 -.108E-22 -.227E-23   0.101E-13 -.299E-12 -.144E-11
   0.106E-12 0.292E-12 0.327E-11   0.586E-13 0.716E-13 0.000E+00   0.414E-23 0.130E-22 -.496E-23   0.119E-12 0.802E-12 0.148E-11
   0.148E-12 0.490E-11 0.834E-11   0.497E-13 0.658E-13 -.142E-13   0.128E-22 0.134E-22 -.393E-23   0.128E-12 -.132E-12 -.142E-11
   0.785E-13 0.575E-11 0.493E-11   0.107E-12 0.658E-13 0.000E+00   -.703E-23 0.116E-22 0.248E-23   -.166E-12 -.122E-11 0.138E-11
   0.151E-12 0.678E-13 0.418E-12   0.453E-13 0.240E-13 -.947E-15   -.579E-23 0.414E-23 -.300E-23   0.388E-12 0.199E-12 0.806E-13
   0.261E-12 -.653E-14 0.237E-12   0.355E-13 0.284E-13 0.513E-14   0.124E-22 -.101E-22 0.000E+00   -.165E-12 0.682E-12 -.683E-12
   0.271E-12 0.342E-12 0.447E-12   0.130E-12 0.595E-13 -.104E-14   0.414E-23 -.112E-22 -.889E-23   0.596E-12 0.700E-12 0.123E-11
   0.156E-12 -.154E-12 -.920E-13   0.639E-13 0.426E-13 0.503E-14   0.281E-22 0.000E+00 0.372E-23   0.190E-11 0.240E-12 -.152E-11
   0.102E-12 0.180E-10 -.118E-10   0.986E-13 0.471E-13 -.107E-14   0.124E-22 0.140E-23 0.248E-23   0.453E-12 -.615E-12 0.322E-12
   -.558E-14 0.743E-11 0.823E-11   0.853E-13 0.497E-13 0.501E-14   -.186E-22 -.827E-24 -.414E-23   0.102E-11 -.592E-12 0.518E-12
   -.103E-13 0.280E-11 -.119E-10   0.453E-13 0.728E-13 -.116E-14   0.141E-22 0.538E-23 -.579E-23   0.154E-12 0.458E-12 0.142E-11
   0.106E-12 0.556E-11 0.428E-11   0.497E-13 0.426E-13 0.491E-14   0.116E-22 0.165E-22 0.951E-23   -.110E-11 0.374E-12 -.496E-12
   0.201E-12 0.253E-12 -.212E-12   -.450E-14 0.546E-13 -.488E-14   0.186E-23 0.258E-24 0.414E-24   -.977E-12 -.658E-12 0.898E-12
   0.113E-12 0.361E-12 -.944E-11   -.880E-14 0.573E-13 0.119E-14   0.682E-23 -.199E-22 -.155E-23   -.767E-12 -.112E-11 -.712E-12
   0.922E-13 0.949E-12 -.104E-10   -.177E-13 0.324E-13 -.498E-14   -.157E-22 0.207E-23 -.496E-23   -.125E-11 0.206E-12 0.756E-12
   0.158E-12 0.939E-12 0.607E-12   -.868E-14 0.706E-13 0.109E-14   -.496E-23 0.149E-22 -.429E-23   -.148E-11 0.600E-12 0.168E-12
   0.353E-12 0.357E-12 0.202E-11   0.452E-13 0.740E-13 -.500E-14   -.434E-23 0.496E-23 0.331E-23   0.103E-11 0.918E-13 0.911E-12
   0.445E-12 0.243E-12 -.155E-11   -.124E-13 0.500E-13 0.107E-14   0.703E-23 -.993E-23 0.414E-24   0.880E-12 0.145E-11 -.512E-12
   0.418E-12 -.114E-11 0.130E-10   0.275E-13 0.332E-13 -.510E-14   -.239E-23 0.496E-23 -.414E-23   0.139E-11 0.465E-12 0.560E-12
   0.348E-12 0.513E-11 -.115E-11   0.899E-14 0.634E-13 0.975E-15   0.827E-23 -.341E-23 0.662E-23   0.165E-11 -.835E-12 -.672E-12
 -----------------------------------------------------------------------------------------------
   0.362E-10 0.109E-09 -.578E-10   -.270E-12 -.521E-13 0.120E-12   0.114E-20 0.516E-21 0.362E-21   0.151E-10 -.244E-10 0.891E-11
 
 
 POSITION                                       TOTAL-FORCE (eV/Angst)
 -----------------------------------------------------------------------------------
      0.00000      0.00000      0.00000        -0.000000     -0.000000      0.000000
      0.00000      0.00000      4.17383        -0.000000      0.000000     -0.000000
      0.00000      4.17383      0.00000        -0.000000     -0.000000      0.000000
      0.00000      4.17383      4.17383         0.000000     -0.000000      0.000000
      4.17383      0.00000      0.00000         0.000000      0.000000     -0.000000
      4.17383      0.00000      4.17383        -0.000000     -0.000000     -0.000000
      4.17383      4.17383      0.00000         0.000000     -0.000000     -0.000000
      4.17383      4.17383      4.17383         0.000000      0.000000     -0.000000
      2.08692      2.08692      0.00000        -0.000000      0.000000      0.000000
      2.08692      2.08692      4.17383        -0.000000     -0.000000     -0.000000
      2.08692      6.26075      0.00000        -0.000000      0.000000      0.000000
      2.08692      6.26075      4.17383         0.000000      0.000000      0.000000
      6.26075      2.08692      0.00000         0.000000      0.000000      0.000000
      6.26075      2.08692      4.17383        -0.000000      0.000000      0.000000
      6.26075      6.26075      0.00000        -0.000000     -0.000000     -0.000000
      6.26075      6.26075      4.17383         0.000000      0.000000     -0.000000
      2.08692      0.00000      2.08692        -0.000000     -0.000000      0.000000
      2.08692      0.00000      6.26075        -0.000000     -0.000000      0.000000
      2.08692      4.17383      2.08692        -0.000000      0.000000     -0.000000
      2.08692      4.17383      6.26075         0.000000      0.000000      0.000000
      6.26075      0.00000      2.08692        -0.000000      0.000000      0.000000
      6.26075      0.00000      6.26075        -0.000000     -0.000000      0.000000
      6.26075      4.17383      2.08692        -0.000000      0.000000     -0.000000
      6.26075      4.17383      6.26075         0.000000     -0.000000      0.000000
      0.00000      2.08692      2.08692        -0.000000     -0.000000      0.000000
      0.00000      2.08692      6.26075         0.000000     -0.000000      0.000000
      0.00000      6.26075      2.08692         0.000000      0.000000     -0.000000
      0.00000      6.26075      6.26075        -0.000000      0.000000     -0.000000
      4.17383      2.08692      2.08692         0.000000     -0.000000      0.000000
      4.17383      2.08692      6.26075        -0.000000     -0.000000      0.000000
      4.17383      6.26075      2.08692        -0.000000     -0.000000     -0.000000
      4.17383      6.26075      6.26075         0.000000     -0.000000      0.000000
      2.08692      2.08692      2.08692         0.000000      0.000000     -0.000000
      2.08692      2.08692      6.26075        -0.000000      0.000000      0.000000
      2.08692      6.26075      2.08692         0.000000     -0.000000     -0.000000
      2.08692      6.26075      6.26075         0.000000     -0.000000      0.000000
      6.26075      2.08692      2.08692         0.000000     -0.000000     -0.000000
      6.26075      2.08692      6.26075         0.000000     -0.000000      0.000000
      6.26075      6.26075      2.08692        -0.000000      0.000000     -0.000000
      6.26075      6.26075      6.26075        -0.000000      0.000000      0.000000
      0.00000      0.00000      2.08692        -0.000000     -0.000000     -0.000000
      0.00000      0.00000      6.26075        -0.000000      0.000000      0.000000
      0.00000      4.17383      2.08692         0.000000     -0.000000     -0.000000
      0.00000      4.17383      6.26075        -0.000000     -0.000000      0.000000
      4.17383      0.00000      2.08692         0.000000     -0.000000     -0.000000
      4.17383      0.00000      6.26075         0.000000     -0.000000      0.000000
      4.17383      4.17383      2.08692         0.000000      0.000000     -0.000000
      4.17383      4.17383      6.26075        -0.000000     -0.000000     -0.000000
      0.00000      2.08692      0.00000        -0.000000      0.000000     -0.000000
      0.00000      2.08692      4.17383        -0.000000     -0.000000      0.000000
      0.00000      6.26075      0.00000         0.000000     -0.000000     -0.000000
      0.00000      6.26075      4.17383         0.000000     -0.000000      0.000000
      4.17383      2.08692      0.00000        -0.000000     -0.000000     -0.000000
      4.17383      2.08692      4.17383        -0.000000      0.000000      0.000000
      4.17383      6.26075      0.00000         0.000000     -0.000000     -0.000000
      4.17383      6.26075      4.17383         0.000000     -0.000000      0.000000
      2.08692      0.00000      0.00000         0.000000      0.000000      0.000000
      2.08692      0.00000      4.17383         0.000000      0.000000     -0.000000
      2.08692      4.17383      0.00000        -0.000000      0.000000     -0.000000
      2.08692      4.17383      4.17383         0.000000     -0.000000      0.000000
      6.26075      0.00000      0.00000         0.000000      0.000000     -0.000000
      6.26075      0.00000      4.17383        -0.000000      0.000000      0.000000
      6.26075      4.17383      0.00000         0.000000     -0.000000     -0.000000
      6.26075      4.17383      4.17383        -0.000000      0.000000     -0.000000
 -----------------------------------------------------------------------------------
    total drift:                                0.000000      0.000000     -0.000000


--------------------------------------------------------------------------------------------------------



  FREE ENERGIE OF THE ION-ELECTRON SYSTEM (eV)
  ---------------------------------------------------
  free  energy   TOTEN  =      -392.99473621 eV

  energy  without entropy=     -392.99473621  energy(sigma->0) =     -392.99473621
 


--------------------------------------------------------------------------------------------------------


    POTLOK:  cpu time    1.3677: real time    1.3674


--------------------------------------------------------------------------------------------------------


 writing wavefunctions
     LOOP+:  cpu time 2732.5316: real time 2734.8858
    4ORBIT:  cpu time    0.0000: real time    0.0000
 


 total charge     
 
# of ion       s       p       d       f       tot
--------------------------------------------------
    1        2.149   6.210   7.852   0.009  16.221
    2        2.149   6.210   7.852   0.009  16.221
    3        2.149   6.210   7.852   0.009  16.221
    4        2.149   6.210   7.852   0.009  16.221
    5        2.149   6.210   7.852   0.009  16.221
    6        2.149   6.210   7.852   0.009  16.221
    7        2.149   6.210   7.852   0.009  16.221
    8        2.149   6.210   7.852   0.009  16.221
    9        2.149   6.210   7.852   0.009  16.221
   10        2.149   6.210   7.852   0.009  16.221
   11        2.149   6.210   7.852   0.009  16.221
   12        2.149   6.210   7.852   0.009  16.221
   13        2.149   6.210   7.852   0.009  16.221
   14        2.149   6.210   7.852   0.009  16.221
   15        2.149   6.210   7.852   0.009  16.221
   16        2.149   6.210   7.852   0.009  16.221
   17        2.149   6.210   7.852   0.009  16.221
   18        2.149   6.210   7.852   0.009  16.221
   19        2.149   6.210   7.852   0.009  16.221
   20        2.149   6.210   7.852   0.009  16.221
   21        2.149   6.210   7.852   0.009  16.221
   22        2.149   6.210   7.852   0.009  16.221
   23        2.149   6.210   7.852   0.009  16.221
   24        2.149   6.210   7.852   0.009  16.221
   25        2.149   6.210   7.852   0.009  16.221
   26        2.149   6.210   7.852   0.009  16.221
   27        2.149   6.210   7.852   0.009  16.221
   28        2.149   6.210   7.852   0.009  16.221
   29        2.149   6.210   7.852   0.009  16.221
   30        2.149   6.210   7.852   0.009  16.221
   31        2.149   6.210   7.852   0.009  16.221
   32        2.149   6.210   7.852   0.009  16.221
   33        1.635   3.514   0.021   0.000   5.170
   34        1.635   3.514   0.021   0.000   5.170
   35        1.635   3.514   0.021   0.000   5.170
   36        1.635   3.514   0.021   0.000   5.170
   37        1.635   3.514   0.021   0.000   5.170
   38        1.635   3.514   0.021   0.000   5.170
   39        1.635   3.514   0.021   0.000   5.170
   40        1.635   3.514   0.021   0.000   5.170
   41        1.635   3.515   0.021   0.000   5.170
   42        1.635   3.515   0.021   0.000   5.170
   43        1.635   3.515   0.021   0.000   5.170
   44        1.635   3.515   0.021   0.000   5.170
   45        1.635   3.515   0.021   0.000   5.170
   46        1.635   3.515   0.021   0.000   5.170
   47        1.635   3.515   0.021   0.000   5.170
   48        1.635   3.515   0.021   0.000   5.170
   49        1.635   3.515   0.021   0.000   5.170
   50        1.635   3.515   0.021   0.000   5.170
   51        1.635   3.515   0.021   0.000   5.170
   52        1.635   3.515   0.021   0.000   5.170
   53        1.635   3.515   0.021   0.000   5.170
   54        1.635   3.515   0.021   0.000   5.170
   55        1.635   3.515   0.021   0.000   5.170
   56        1.635   3.515   0.021   0.000   5.170
   57        1.635   3.515   0.021   0.000   5.170
   58        1.635   3.515   0.021   0.000   5.170
   59        1.635   3.515   0.021   0.000   5.170
   60        1.635   3.515   0.021   0.000   5.170
   61        1.635   3.515   0.021   0.000   5.170
   62        1.635   3.515   0.021   0.000   5.170
   63        1.635   3.515   0.021   0.000   5.170
   64        1.635   3.515   0.021   0.000   5.170
--------------------------------------------------
tot        121.088 311.192 251.929   0.295 684.505

 


 magnetization (x)
 
# of ion       s       p       d       f       tot
--------------------------------------------------
    1        0.007   0.008   0.649   0.000   0.664
    2        0.007   0.008   0.649   0.000   0.664
    3        0.007   0.008   0.649   0.000   0.664
    4        0.007   0.008   0.649   0.000   0.664
    5        0.007   0.008   0.649   0.000   0.664
    6        0.007   0.008   0.649   0.000   0.664
    7        0.007   0.008   0.649   0.000   0.664
    8        0.007   0.008   0.649   0.000   0.664
    9        0.007   0.008   0.649   0.000   0.664
   10        0.007   0.008   0.649   0.000   0.664
   11        0.007   0.008   0.649   0.000   0.664
   12        0.007   0.008   0.649   0.000   0.664
   13        0.007   0.008   0.649   0.000   0.664
   14        0.007   0.008   0.649   0.000   0.664
   15        0.007   0.008   0.649   0.000   0.664
   16        0.007   0.008   0.649   0.000   0.664
   17       -0.007  -0.008  -0.649  -0.000  -0.664
   18       -0.007  -0.008  -0.649  -0.000  -0.664
   19       -0.007  -0.008  -0.649  -0.000  -0.664
   20       -0.007  -0.008  -0.649  -0.000  -0.664
   21       -0.007  -0.008  -0.649  -0.000  -0.664
   22       -0.007  -0.008  -0.649  -0.000  -0.664
   23       -0.007  -0.008  -0.649  -0.000  -0.664
   24       -0.007  -0.008  -0.649  -0.000  -0.664
   25       -0.007  -0.008  -0.649  -0.000  -0.664
   26       -0.007  -0.008  -0.649  -0.000  -0.664
   27       -0.007  -0.008  -0.649  -0.000  -0.664
   28       -0.007  -0.008  -0.649  -0.000  -0.664
   29       -0.007  -0.008  -0.649  -0.000  -0.664
   30       -0.007  -0.008  -0.649  -0.000  -0.664
   31       -0.007  -0.008  -0.649  -0.000  -0.664
   32       -0.007  -0.008  -0.649  -0.000  -0.664
   33       -0.005  -0.028  -0.000   0.000  -0.034
   34       -0.005  -0.028  -0.000   0.000  -0.034
   35       -0.005  -0.028  -0.000   0.000  -0.034
   36       -0.005  -0.028  -0.000   0.000  -0.034
   37       -0.005  -0.028  -0.000   0.000  -0.034
   38       -0.005  -0.028  -0.000   0.000  -0.034
   39       -0.005  -0.028  -0.000   0.000  -0.034
   40       -0.005  -0.028  -0.000   0.000  -0.034
   41       -0.005  -0.028  -0.000   0.000  -0.034
   42       -0.005  -0.028  -0.000   0.000  -0.034
   43       -0.005  -0.028  -0.000   0.000  -0.034
   44       -0.005  -0.028  -0.000   0.000  -0.034
   45       -0.005  -0.028  -0.000   0.000  -0.034
   46       -0.005  -0.028  -0.000   0.000  -0.034
   47       -0.005  -0.028  -0.000   0.000  -0.034
   48       -0.005  -0.028  -0.000   0.000  -0.034
   49        0.005   0.028   0.000   0.000   0.034
   50        0.005   0.028   0.000   0.000   0.034
   51        0.005   0.028   0.000   0.000   0.034
   52        0.005   0.028   0.000   0.000   0.034
   53        0.005   0.028   0.000   0.000   0.034
   54        0.005   0.028   0.000   0.000   0.034
   55        0.005   0.028   0.000   0.000   0.034
   56        0.005   0.028   0.000   0.000   0.034
   57        0.005   0.028   0.000   0.000   0.034
   58        0.005   0.028   0.000   0.000   0.034
   59        0.005   0.028   0.000   0.000   0.034
   60        0.005   0.028   0.000   0.000   0.034
   61        0.005   0.028   0.000   0.000   0.034
   62        0.005   0.028   0.000   0.000   0.034
   63        0.005   0.028   0.000   0.000   0.034
   64        0.005   0.028   0.000   0.000   0.034
--------------------------------------------------
tot         -0.000   0.000   0.000   0.000   0.000

 
